(written by ASE)

1080 atoms
4 atom types

0.0      24.299999999999997  xlo xhi
0.0      24.299999999999997  ylo yhi
0.0      24.299999999999997  zlo zhi

Atoms # atomic

     1   4                       0                       0                       0
     2   2      2.0249999999999999      2.0249999999999999      2.0249999999999999
     3   3      2.0249999999999999      2.0249999999999999                       0
     4   3                       0      2.0249999999999999      2.0249999999999999
     5   3      2.0249999999999999                       0      2.0249999999999999
     6   4                       0                       0      4.0499999999999998
     7   2      2.0249999999999999      2.0249999999999999      6.0749999999999993
     8   3      2.0249999999999999      2.0249999999999999      4.0499999999999998
     9   3                       0      2.0249999999999999      6.0749999999999993
    10   3      2.0249999999999999                       0      6.0749999999999993
    11   4                       0                       0      8.0999999999999996
    12   1      2.0249999999999999      2.0249999999999999                  10.125
    13   3      2.0249999999999999      2.0249999999999999      8.0999999999999996
    14   3                       0      2.0249999999999999                  10.125
    15   3      2.0249999999999999                       0                  10.125
    16   4                       0      4.0499999999999998                       0
    17   2      2.0249999999999999      6.0749999999999993      2.0249999999999999
    18   3      2.0249999999999999      6.0749999999999993                       0
    19   3                       0      6.0749999999999993      2.0249999999999999
    20   3      2.0249999999999999      4.0499999999999998      2.0249999999999999
    21   4                       0      4.0499999999999998      4.0499999999999998
    22   2      2.0249999999999999      6.0749999999999993      6.0749999999999993
    23   3      2.0249999999999999      6.0749999999999993      4.0499999999999998
    24   3                       0      6.0749999999999993      6.0749999999999993
    25   3      2.0249999999999999      4.0499999999999998      6.0749999999999993
    26   4                       0      4.0499999999999998      8.0999999999999996
    27   2      2.0249999999999999      6.0749999999999993                  10.125
    28   3      2.0249999999999999      6.0749999999999993      8.0999999999999996
    29   3                       0      6.0749999999999993                  10.125
    30   3      2.0249999999999999      4.0499999999999998                  10.125
    31   4                       0      8.0999999999999996                       0
    32   2      2.0249999999999999                  10.125      2.0249999999999999
    33   3      2.0249999999999999                  10.125                       0
    34   3                       0                  10.125      2.0249999999999999
    35   3      2.0249999999999999      8.0999999999999996      2.0249999999999999
    36   4                       0      8.0999999999999996      4.0499999999999998
    37   1      2.0249999999999999                  10.125      6.0749999999999993
    38   3      2.0249999999999999                  10.125      4.0499999999999998
    39   3                       0                  10.125      6.0749999999999993
    40   3      2.0249999999999999      8.0999999999999996      6.0749999999999993
    41   4                       0      8.0999999999999996      8.0999999999999996
    42   2      2.0249999999999999                  10.125                  10.125
    43   3      2.0249999999999999                  10.125      8.0999999999999996
    44   3                       0                  10.125                  10.125
    45   3      2.0249999999999999      8.0999999999999996                  10.125
    46   4      4.0499999999999998                       0                       0
    47   2      6.0749999999999993      2.0249999999999999      2.0249999999999999
    48   3      6.0749999999999993      2.0249999999999999                       0
    49   3      4.0499999999999998      2.0249999999999999      2.0249999999999999
    50   3      6.0749999999999993                       0      2.0249999999999999
    51   4      4.0499999999999998                       0      4.0499999999999998
    52   1      6.0749999999999993      2.0249999999999999      6.0749999999999993
    53   3      6.0749999999999993      2.0249999999999999      4.0499999999999998
    54   3      4.0499999999999998      2.0249999999999999      6.0749999999999993
    55   3      6.0749999999999993                       0      6.0749999999999993
    56   4      4.0499999999999998                       0      8.0999999999999996
    57   2      6.0749999999999993      2.0249999999999999                  10.125
    58   3      6.0749999999999993      2.0249999999999999      8.0999999999999996
    59   3      4.0499999999999998      2.0249999999999999                  10.125
    60   3      6.0749999999999993                       0                  10.125
    61   4      4.0499999999999998      4.0499999999999998                       0
    62   2      6.0749999999999993      6.0749999999999993      2.0249999999999999
    63   3      6.0749999999999993      6.0749999999999993                       0
    64   3      4.0499999999999998      6.0749999999999993      2.0249999999999999
    65   3      6.0749999999999993      4.0499999999999998      2.0249999999999999
    66   4      4.0499999999999998      4.0499999999999998      4.0499999999999998
    67   2      6.0749999999999993      6.0749999999999993      6.0749999999999993
    68   3      6.0749999999999993      6.0749999999999993      4.0499999999999998
    69   3      4.0499999999999998      6.0749999999999993      6.0749999999999993
    70   3      6.0749999999999993      4.0499999999999998      6.0749999999999993
    71   4      4.0499999999999998      4.0499999999999998      8.0999999999999996
    72   1      6.0749999999999993      6.0749999999999993                  10.125
    73   3      6.0749999999999993      6.0749999999999993      8.0999999999999996
    74   3      4.0499999999999998      6.0749999999999993                  10.125
    75   3      6.0749999999999993      4.0499999999999998                  10.125
    76   4      4.0499999999999998      8.0999999999999996                       0
    77   2      6.0749999999999993                  10.125      2.0249999999999999
    78   3      6.0749999999999993                  10.125                       0
    79   3      4.0499999999999998                  10.125      2.0249999999999999
    80   3      6.0749999999999993      8.0999999999999996      2.0249999999999999
    81   4      4.0499999999999998      8.0999999999999996      4.0499999999999998
    82   1      6.0749999999999993                  10.125      6.0749999999999993
    83   3      6.0749999999999993                  10.125      4.0499999999999998
    84   3      4.0499999999999998                  10.125      6.0749999999999993
    85   3      6.0749999999999993      8.0999999999999996      6.0749999999999993
    86   4      4.0499999999999998      8.0999999999999996      8.0999999999999996
    87   1      6.0749999999999993                  10.125                  10.125
    88   3      6.0749999999999993                  10.125      8.0999999999999996
    89   3      4.0499999999999998                  10.125                  10.125
    90   3      6.0749999999999993      8.0999999999999996                  10.125
    91   4      8.0999999999999996                       0                       0
    92   2                  10.125      2.0249999999999999      2.0249999999999999
    93   3                  10.125      2.0249999999999999                       0
    94   3      8.0999999999999996      2.0249999999999999      2.0249999999999999
    95   3                  10.125                       0      2.0249999999999999
    96   4      8.0999999999999996                       0      4.0499999999999998
    97   1                  10.125      2.0249999999999999      6.0749999999999993
    98   3                  10.125      2.0249999999999999      4.0499999999999998
    99   3      8.0999999999999996      2.0249999999999999      6.0749999999999993
   100   3                  10.125                       0      6.0749999999999993
   101   4      8.0999999999999996                       0      8.0999999999999996
   102   2                  10.125      2.0249999999999999                  10.125
   103   3                  10.125      2.0249999999999999      8.0999999999999996
   104   3      8.0999999999999996      2.0249999999999999                  10.125
   105   3                  10.125                       0                  10.125
   106   4      8.0999999999999996      4.0499999999999998                       0
   107   2                  10.125      6.0749999999999993      2.0249999999999999
   108   3                  10.125      6.0749999999999993                       0
   109   3      8.0999999999999996      6.0749999999999993      2.0249999999999999
   110   3                  10.125      4.0499999999999998      2.0249999999999999
   111   4      8.0999999999999996      4.0499999999999998      4.0499999999999998
   112   2                  10.125      6.0749999999999993      6.0749999999999993
   113   3                  10.125      6.0749999999999993      4.0499999999999998
   114   3      8.0999999999999996      6.0749999999999993      6.0749999999999993
   115   3                  10.125      4.0499999999999998      6.0749999999999993
   116   4      8.0999999999999996      4.0499999999999998      8.0999999999999996
   117   2                  10.125      6.0749999999999993                  10.125
   118   3                  10.125      6.0749999999999993      8.0999999999999996
   119   3      8.0999999999999996      6.0749999999999993                  10.125
   120   3                  10.125      4.0499999999999998                  10.125
   121   4      8.0999999999999996      8.0999999999999996                       0
   122   1                  10.125                  10.125      2.0249999999999999
   123   3                  10.125                  10.125                       0
   124   3      8.0999999999999996                  10.125      2.0249999999999999
   125   3                  10.125      8.0999999999999996      2.0249999999999999
   126   4      8.0999999999999996      8.0999999999999996      4.0499999999999998
   127   2                  10.125                  10.125      6.0749999999999993
   128   3                  10.125                  10.125      4.0499999999999998
   129   3      8.0999999999999996                  10.125      6.0749999999999993
   130   3                  10.125      8.0999999999999996      6.0749999999999993
   131   4      8.0999999999999996      8.0999999999999996      8.0999999999999996
   132   1                  10.125                  10.125                  10.125
   133   3                  10.125                  10.125      8.0999999999999996
   134   3      8.0999999999999996                  10.125                  10.125
   135   3                  10.125      8.0999999999999996                  10.125
   136   4                       0                       0      12.149999999999999
   137   2      2.0249999999999999      2.0249999999999999      14.174999999999999
   138   3      2.0249999999999999      2.0249999999999999      12.149999999999999
   139   3                       0      2.0249999999999999      14.174999999999999
   140   3      2.0249999999999999                       0      14.174999999999999
   141   4                       0                       0      16.199999999999999
   142   2      2.0249999999999999      2.0249999999999999      18.224999999999998
   143   3      2.0249999999999999      2.0249999999999999      16.199999999999999
   144   3                       0      2.0249999999999999      18.224999999999998
   145   3      2.0249999999999999                       0      18.224999999999998
   146   4                       0                       0                   20.25
   147   2      2.0249999999999999      2.0249999999999999      22.274999999999999
   148   3      2.0249999999999999      2.0249999999999999                   20.25
   149   3                       0      2.0249999999999999      22.274999999999999
   150   3      2.0249999999999999                       0      22.274999999999999
   151   4                       0      4.0499999999999998      12.149999999999999
   152   2      2.0249999999999999      6.0749999999999993      14.174999999999999
   153   3      2.0249999999999999      6.0749999999999993      12.149999999999999
   154   3                       0      6.0749999999999993      14.174999999999999
   155   3      2.0249999999999999      4.0499999999999998      14.174999999999999
   156   4                       0      4.0499999999999998      16.199999999999999
   157   2      2.0249999999999999      6.0749999999999993      18.224999999999998
   158   3      2.0249999999999999      6.0749999999999993      16.199999999999999
   159   3                       0      6.0749999999999993      18.224999999999998
   160   3      2.0249999999999999      4.0499999999999998      18.224999999999998
   161   4                       0      4.0499999999999998                   20.25
   162   2      2.0249999999999999      6.0749999999999993      22.274999999999999
   163   3      2.0249999999999999      6.0749999999999993                   20.25
   164   3                       0      6.0749999999999993      22.274999999999999
   165   3      2.0249999999999999      4.0499999999999998      22.274999999999999
   166   4                       0      8.0999999999999996      12.149999999999999
   167   2      2.0249999999999999                  10.125      14.174999999999999
   168   3      2.0249999999999999                  10.125      12.149999999999999
   169   3                       0                  10.125      14.174999999999999
   170   3      2.0249999999999999      8.0999999999999996      14.174999999999999
   171   4                       0      8.0999999999999996      16.199999999999999
   172   1      2.0249999999999999                  10.125      18.224999999999998
   173   3      2.0249999999999999                  10.125      16.199999999999999
   174   3                       0                  10.125      18.224999999999998
   175   3      2.0249999999999999      8.0999999999999996      18.224999999999998
   176   4                       0      8.0999999999999996                   20.25
   177   2      2.0249999999999999                  10.125      22.274999999999999
   178   3      2.0249999999999999                  10.125                   20.25
   179   3                       0                  10.125      22.274999999999999
   180   3      2.0249999999999999      8.0999999999999996      22.274999999999999
   181   4      4.0499999999999998                       0      12.149999999999999
   182   1      6.0749999999999993      2.0249999999999999      14.174999999999999
   183   3      6.0749999999999993      2.0249999999999999      12.149999999999999
   184   3      4.0499999999999998      2.0249999999999999      14.174999999999999
   185   3      6.0749999999999993                       0      14.174999999999999
   186   4      4.0499999999999998                       0      16.199999999999999
   187   1      6.0749999999999993      2.0249999999999999      18.224999999999998
   188   3      6.0749999999999993      2.0249999999999999      16.199999999999999
   189   3      4.0499999999999998      2.0249999999999999      18.224999999999998
   190   3      6.0749999999999993                       0      18.224999999999998
   191   4      4.0499999999999998                       0                   20.25
   192   1      6.0749999999999993      2.0249999999999999      22.274999999999999
   193   3      6.0749999999999993      2.0249999999999999                   20.25
   194   3      4.0499999999999998      2.0249999999999999      22.274999999999999
   195   3      6.0749999999999993                       0      22.274999999999999
   196   4      4.0499999999999998      4.0499999999999998      12.149999999999999
   197   1      6.0749999999999993      6.0749999999999993      14.174999999999999
   198   3      6.0749999999999993      6.0749999999999993      12.149999999999999
   199   3      4.0499999999999998      6.0749999999999993      14.174999999999999
   200   3      6.0749999999999993      4.0499999999999998      14.174999999999999
   201   4      4.0499999999999998      4.0499999999999998      16.199999999999999
   202   2      6.0749999999999993      6.0749999999999993      18.224999999999998
   203   3      6.0749999999999993      6.0749999999999993      16.199999999999999
   204   3      4.0499999999999998      6.0749999999999993      18.224999999999998
   205   3      6.0749999999999993      4.0499999999999998      18.224999999999998
   206   4      4.0499999999999998      4.0499999999999998                   20.25
   207   1      6.0749999999999993      6.0749999999999993      22.274999999999999
   208   3      6.0749999999999993      6.0749999999999993                   20.25
   209   3      4.0499999999999998      6.0749999999999993      22.274999999999999
   210   3      6.0749999999999993      4.0499999999999998      22.274999999999999
   211   4      4.0499999999999998      8.0999999999999996      12.149999999999999
   212   2      6.0749999999999993                  10.125      14.174999999999999
   213   3      6.0749999999999993                  10.125      12.149999999999999
   214   3      4.0499999999999998                  10.125      14.174999999999999
   215   3      6.0749999999999993      8.0999999999999996      14.174999999999999
   216   4      4.0499999999999998      8.0999999999999996      16.199999999999999
   217   1      6.0749999999999993                  10.125      18.224999999999998
   218   3      6.0749999999999993                  10.125      16.199999999999999
   219   3      4.0499999999999998                  10.125      18.224999999999998
   220   3      6.0749999999999993      8.0999999999999996      18.224999999999998
   221   4      4.0499999999999998      8.0999999999999996                   20.25
   222   2      6.0749999999999993                  10.125      22.274999999999999
   223   3      6.0749999999999993                  10.125                   20.25
   224   3      4.0499999999999998                  10.125      22.274999999999999
   225   3      6.0749999999999993      8.0999999999999996      22.274999999999999
   226   4      8.0999999999999996                       0      12.149999999999999
   227   2                  10.125      2.0249999999999999      14.174999999999999
   228   3                  10.125      2.0249999999999999      12.149999999999999
   229   3      8.0999999999999996      2.0249999999999999      14.174999999999999
   230   3                  10.125                       0      14.174999999999999
   231   4      8.0999999999999996                       0      16.199999999999999
   232   2                  10.125      2.0249999999999999      18.224999999999998
   233   3                  10.125      2.0249999999999999      16.199999999999999
   234   3      8.0999999999999996      2.0249999999999999      18.224999999999998
   235   3                  10.125                       0      18.224999999999998
   236   4      8.0999999999999996                       0                   20.25
   237   2                  10.125      2.0249999999999999      22.274999999999999
   238   3                  10.125      2.0249999999999999                   20.25
   239   3      8.0999999999999996      2.0249999999999999      22.274999999999999
   240   3                  10.125                       0      22.274999999999999
   241   4      8.0999999999999996      4.0499999999999998      12.149999999999999
   242   1                  10.125      6.0749999999999993      14.174999999999999
   243   3                  10.125      6.0749999999999993      12.149999999999999
   244   3      8.0999999999999996      6.0749999999999993      14.174999999999999
   245   3                  10.125      4.0499999999999998      14.174999999999999
   246   4      8.0999999999999996      4.0499999999999998      16.199999999999999
   247   1                  10.125      6.0749999999999993      18.224999999999998
   248   3                  10.125      6.0749999999999993      16.199999999999999
   249   3      8.0999999999999996      6.0749999999999993      18.224999999999998
   250   3                  10.125      4.0499999999999998      18.224999999999998
   251   4      8.0999999999999996      4.0499999999999998                   20.25
   252   2                  10.125      6.0749999999999993      22.274999999999999
   253   3                  10.125      6.0749999999999993                   20.25
   254   3      8.0999999999999996      6.0749999999999993      22.274999999999999
   255   3                  10.125      4.0499999999999998      22.274999999999999
   256   4      8.0999999999999996      8.0999999999999996      12.149999999999999
   257   2                  10.125                  10.125      14.174999999999999
   258   3                  10.125                  10.125      12.149999999999999
   259   3      8.0999999999999996                  10.125      14.174999999999999
   260   3                  10.125      8.0999999999999996      14.174999999999999
   261   4      8.0999999999999996      8.0999999999999996      16.199999999999999
   262   2                  10.125                  10.125      18.224999999999998
   263   3                  10.125                  10.125      16.199999999999999
   264   3      8.0999999999999996                  10.125      18.224999999999998
   265   3                  10.125      8.0999999999999996      18.224999999999998
   266   4      8.0999999999999996      8.0999999999999996                   20.25
   267   2                  10.125                  10.125      22.274999999999999
   268   3                  10.125                  10.125                   20.25
   269   3      8.0999999999999996                  10.125      22.274999999999999
   270   3                  10.125      8.0999999999999996      22.274999999999999
   271   4                       0      12.149999999999999                       0
   272   1      2.0249999999999999      14.174999999999999      2.0249999999999999
   273   3      2.0249999999999999      14.174999999999999                       0
   274   3                       0      14.174999999999999      2.0249999999999999
   275   3      2.0249999999999999      12.149999999999999      2.0249999999999999
   276   4                       0      12.149999999999999      4.0499999999999998
   277   1      2.0249999999999999      14.174999999999999      6.0749999999999993
   278   3      2.0249999999999999      14.174999999999999      4.0499999999999998
   279   3                       0      14.174999999999999      6.0749999999999993
   280   3      2.0249999999999999      12.149999999999999      6.0749999999999993
   281   4                       0      12.149999999999999      8.0999999999999996
   282   2      2.0249999999999999      14.174999999999999                  10.125
   283   3      2.0249999999999999      14.174999999999999      8.0999999999999996
   284   3                       0      14.174999999999999                  10.125
   285   3      2.0249999999999999      12.149999999999999                  10.125
   286   4                       0      16.199999999999999                       0
   287   1      2.0249999999999999      18.224999999999998      2.0249999999999999
   288   3      2.0249999999999999      18.224999999999998                       0
   289   3                       0      18.224999999999998      2.0249999999999999
   290   3      2.0249999999999999      16.199999999999999      2.0249999999999999
   291   4                       0      16.199999999999999      4.0499999999999998
   292   1      2.0249999999999999      18.224999999999998      6.0749999999999993
   293   3      2.0249999999999999      18.224999999999998      4.0499999999999998
   294   3                       0      18.224999999999998      6.0749999999999993
   295   3      2.0249999999999999      16.199999999999999      6.0749999999999993
   296   4                       0      16.199999999999999      8.0999999999999996
   297   1      2.0249999999999999      18.224999999999998                  10.125
   298   3      2.0249999999999999      18.224999999999998      8.0999999999999996
   299   3                       0      18.224999999999998                  10.125
   300   3      2.0249999999999999      16.199999999999999                  10.125
   301   4                       0                   20.25                       0
   302   2      2.0249999999999999      22.274999999999999      2.0249999999999999
   303   3      2.0249999999999999      22.274999999999999                       0
   304   3                       0      22.274999999999999      2.0249999999999999
   305   3      2.0249999999999999                   20.25      2.0249999999999999
   306   4                       0                   20.25      4.0499999999999998
   307   2      2.0249999999999999      22.274999999999999      6.0749999999999993
   308   3      2.0249999999999999      22.274999999999999      4.0499999999999998
   309   3                       0      22.274999999999999      6.0749999999999993
   310   3      2.0249999999999999                   20.25      6.0749999999999993
   311   4                       0                   20.25      8.0999999999999996
   312   1      2.0249999999999999      22.274999999999999                  10.125
   313   3      2.0249999999999999      22.274999999999999      8.0999999999999996
   314   3                       0      22.274999999999999                  10.125
   315   3      2.0249999999999999                   20.25                  10.125
   316   4      4.0499999999999998      12.149999999999999                       0
   317   2      6.0749999999999993      14.174999999999999      2.0249999999999999
   318   3      6.0749999999999993      14.174999999999999                       0
   319   3      4.0499999999999998      14.174999999999999      2.0249999999999999
   320   3      6.0749999999999993      12.149999999999999      2.0249999999999999
   321   4      4.0499999999999998      12.149999999999999      4.0499999999999998
   322   2      6.0749999999999993      14.174999999999999      6.0749999999999993
   323   3      6.0749999999999993      14.174999999999999      4.0499999999999998
   324   3      4.0499999999999998      14.174999999999999      6.0749999999999993
   325   3      6.0749999999999993      12.149999999999999      6.0749999999999993
   326   4      4.0499999999999998      12.149999999999999      8.0999999999999996
   327   2      6.0749999999999993      14.174999999999999                  10.125
   328   3      6.0749999999999993      14.174999999999999      8.0999999999999996
   329   3      4.0499999999999998      14.174999999999999                  10.125
   330   3      6.0749999999999993      12.149999999999999                  10.125
   331   4      4.0499999999999998      16.199999999999999                       0
   332   2      6.0749999999999993      18.224999999999998      2.0249999999999999
   333   3      6.0749999999999993      18.224999999999998                       0
   334   3      4.0499999999999998      18.224999999999998      2.0249999999999999
   335   3      6.0749999999999993      16.199999999999999      2.0249999999999999
   336   4      4.0499999999999998      16.199999999999999      4.0499999999999998
   337   2      6.0749999999999993      18.224999999999998      6.0749999999999993
   338   3      6.0749999999999993      18.224999999999998      4.0499999999999998
   339   3      4.0499999999999998      18.224999999999998      6.0749999999999993
   340   3      6.0749999999999993      16.199999999999999      6.0749999999999993
   341   4      4.0499999999999998      16.199999999999999      8.0999999999999996
   342   2      6.0749999999999993      18.224999999999998                  10.125
   343   3      6.0749999999999993      18.224999999999998      8.0999999999999996
   344   3      4.0499999999999998      18.224999999999998                  10.125
   345   3      6.0749999999999993      16.199999999999999                  10.125
   346   4      4.0499999999999998                   20.25                       0
   347   1      6.0749999999999993      22.274999999999999      2.0249999999999999
   348   3      6.0749999999999993      22.274999999999999                       0
   349   3      4.0499999999999998      22.274999999999999      2.0249999999999999
   350   3      6.0749999999999993                   20.25      2.0249999999999999
   351   4      4.0499999999999998                   20.25      4.0499999999999998
   352   2      6.0749999999999993      22.274999999999999      6.0749999999999993
   353   3      6.0749999999999993      22.274999999999999      4.0499999999999998
   354   3      4.0499999999999998      22.274999999999999      6.0749999999999993
   355   3      6.0749999999999993                   20.25      6.0749999999999993
   356   4      4.0499999999999998                   20.25      8.0999999999999996
   357   2      6.0749999999999993      22.274999999999999                  10.125
   358   3      6.0749999999999993      22.274999999999999      8.0999999999999996
   359   3      4.0499999999999998      22.274999999999999                  10.125