(written by ASE)

8640 atoms
4 atom types

0.0      48.599999999999994  xlo xhi
0.0      48.599999999999994  ylo yhi
0.0      48.599999999999994  zlo zhi

Atoms # atomic

     1   4                       0                       0                       0
     2   1      2.0249999999999999      2.0249999999999999      2.0249999999999999
     3   3      2.0249999999999999      2.0249999999999999                       0
     4   3                       0      2.0249999999999999      2.0249999999999999
     5   3      2.0249999999999999                       0      2.0249999999999999
     6   4                       0                       0      4.0499999999999998
     7   2      2.0249999999999999      2.0249999999999999      6.0749999999999993
     8   3      2.0249999999999999      2.0249999999999999      4.0499999999999998
     9   3                       0      2.0249999999999999      6.0749999999999993
    10   3      2.0249999999999999                       0      6.0749999999999993
    11   4                       0                       0      8.0999999999999996
    12   2      2.0249999999999999      2.0249999999999999                  10.125
    13   3      2.0249999999999999      2.0249999999999999      8.0999999999999996
    14   3                       0      2.0249999999999999                  10.125
    15   3      2.0249999999999999                       0                  10.125
    16   4                       0                       0      12.149999999999999
    17   2      2.0249999999999999      2.0249999999999999      14.174999999999999
    18   3      2.0249999999999999      2.0249999999999999      12.149999999999999
    19   3                       0      2.0249999999999999      14.174999999999999
    20   3      2.0249999999999999                       0      14.174999999999999
    21   4                       0                       0      16.199999999999999
    22   1      2.0249999999999999      2.0249999999999999      18.224999999999998
    23   3      2.0249999999999999      2.0249999999999999      16.199999999999999
    24   3                       0      2.0249999999999999      18.224999999999998
    25   3      2.0249999999999999                       0      18.224999999999998
    26   4                       0                       0                   20.25
    27   2      2.0249999999999999      2.0249999999999999      22.274999999999999
    28   3      2.0249999999999999      2.0249999999999999                   20.25
    29   3                       0      2.0249999999999999      22.274999999999999
    30   3      2.0249999999999999                       0      22.274999999999999
    31   4                       0                       0      24.299999999999997
    32   2      2.0249999999999999      2.0249999999999999      26.324999999999996
    33   3      2.0249999999999999      2.0249999999999999      24.299999999999997
    34   3                       0      2.0249999999999999      26.324999999999996
    35   3      2.0249999999999999                       0      26.324999999999996
    36   4                       0                       0      28.349999999999998
    37   2      2.0249999999999999      2.0249999999999999      30.374999999999996
    38   3      2.0249999999999999      2.0249999999999999      28.349999999999998
    39   3                       0      2.0249999999999999      30.374999999999996
    40   3      2.0249999999999999                       0      30.374999999999996
    41   4                       0                       0      32.399999999999999
    42   2      2.0249999999999999      2.0249999999999999      34.424999999999997
    43   3      2.0249999999999999      2.0249999999999999      32.399999999999999
    44   3                       0      2.0249999999999999      34.424999999999997
    45   3      2.0249999999999999                       0      34.424999999999997
    46   4                       0                       0      36.449999999999996
    47   2      2.0249999999999999      2.0249999999999999      38.474999999999994
    48   3      2.0249999999999999      2.0249999999999999      36.449999999999996
    49   3                       0      2.0249999999999999      38.474999999999994
    50   3      2.0249999999999999                       0      38.474999999999994
    51   4                       0                       0                    40.5
    52   2      2.0249999999999999      2.0249999999999999      42.524999999999999
    53   3      2.0249999999999999      2.0249999999999999                    40.5
    54   3                       0      2.0249999999999999      42.524999999999999
    55   3      2.0249999999999999                       0      42.524999999999999
    56   4                       0                       0      44.549999999999997
    57   2      2.0249999999999999      2.0249999999999999      46.574999999999996
    58   3      2.0249999999999999      2.0249999999999999      44.549999999999997
    59   3                       0      2.0249999999999999      46.574999999999996
    60   3      2.0249999999999999                       0      46.574999999999996
    61   4                       0      4.0499999999999998                       0
    62   2      2.0249999999999999      6.0749999999999993      2.0249999999999999
    63   3      2.0249999999999999      6.0749999999999993                       0
    64   3                       0      6.0749999999999993      2.0249999999999999
    65   3      2.0249999999999999      4.0499999999999998      2.0249999999999999
    66   4                       0      4.0499999999999998      4.0499999999999998
    67   1      2.0249999999999999      6.0749999999999993      6.0749999999999993
    68   3      2.0249999999999999      6.0749999999999993      4.0499999999999998
    69   3                       0      6.0749999999999993      6.0749999999999993
    70   3      2.0249999999999999      4.0499999999999998      6.0749999999999993
    71   4                       0      4.0499999999999998      8.0999999999999996
    72   2      2.0249999999999999      6.0749999999999993                  10.125
    73   3      2.0249999999999999      6.0749999999999993      8.0999999999999996
    74   3                       0      6.0749999999999993                  10.125
    75   3      2.0249999999999999      4.0499999999999998                  10.125
    76   4                       0      4.0499999999999998      12.149999999999999
    77   1      2.0249999999999999      6.0749999999999993      14.174999999999999
    78   3      2.0249999999999999      6.0749999999999993      12.149999999999999
    79   3                       0      6.0749999999999993      14.174999999999999
    80   3      2.0249999999999999      4.0499999999999998      14.174999999999999
    81   4                       0      4.0499999999999998      16.199999999999999
    82   2      2.0249999999999999      6.0749999999999993      18.224999999999998
    83   3      2.0249999999999999      6.0749999999999993      16.199999999999999
    84   3                       0      6.0749999999999993      18.224999999999998
    85   3      2.0249999999999999      4.0499999999999998      18.224999999999998
    86   4                       0      4.0499999999999998                   20.25
    87   1      2.0249999999999999      6.0749999999999993      22.274999999999999
    88   3      2.0249999999999999      6.0749999999999993                   20.25
    89   3                       0      6.0749999999999993      22.274999999999999
    90   3      2.0249999999999999      4.0499999999999998      22.274999999999999
    91   4                       0      4.0499999999999998      24.299999999999997
    92   2      2.0249999999999999      6.0749999999999993      26.324999999999996
    93   3      2.0249999999999999      6.0749999999999993      24.299999999999997
    94   3                       0      6.0749999999999993      26.324999999999996
    95   3      2.0249999999999999      4.0499999999999998      26.324999999999996
    96   4                       0      4.0499999999999998      28.349999999999998
    97   1      2.0249999999999999      6.0749999999999993      30.374999999999996
    98   3      2.0249999999999999      6.0749999999999993      28.349999999999998
    99   3                       0      6.0749999999999993      30.374999999999996
   100   3      2.0249999999999999      4.0499999999999998      30.374999999999996
   101   4                       0      4.0499999999999998      32.399999999999999
   102   2      2.0249999999999999      6.0749999999999993      34.424999999999997
   103   3      2.0249999999999999      6.0749999999999993      32.399999999999999
   104   3                       0      6.0749999999999993      34.424999999999997
   105   3      2.0249999999999999      4.0499999999999998      34.424999999999997
   106   4                       0      4.0499999999999998      36.449999999999996
   107   2      2.0249999999999999      6.0749999999999993      38.474999999999994
   108   3      2.0249999999999999      6.0749999999999993      36.449999999999996
   109   3                       0      6.0749999999999993      38.474999999999994
   110   3      2.0249999999999999      4.0499999999999998      38.474999999999994
   111   4                       0      4.0499999999999998                    40.5
   112   2      2.0249999999999999      6.0749999999999993      42.524999999999999
   113   3      2.0249999999999999      6.0749999999999993                    40.5
   114   3                       0      6.0749999999999993      42.524999999999999
   115   3      2.0249999999999999      4.0499999999999998      42.524999999999999
   116   4                       0      4.0499999999999998      44.549999999999997
   117   2      2.0249999999999999      6.0749999999999993      46.574999999999996
   118   3      2.0249999999999999      6.0749999999999993      44.549999999999997
   119   3                       0      6.0749999999999993      46.574999999999996
   120   3      2.0249999999999999      4.0499999999999998      46.574999999999996
   121   4                       0      8.0999999999999996                       0
   122   1      2.0249999999999999                  10.125      2.0249999999999999
   123   3      2.0249999999999999                  10.125                       0
   124   3                       0                  10.125      2.0249999999999999
   125   3      2.0249999999999999      8.0999999999999996      2.0249999999999999
   126   4                       0      8.0999999999999996      4.0499999999999998
   127   2      2.0249999999999999                  10.125      6.0749999999999993
   128   3      2.0249999999999999                  10.125      4.0499999999999998
   129   3                       0                  10.125      6.0749999999999993
   130   3      2.0249999999999999      8.0999999999999996      6.0749999999999993
   131   4                       0      8.0999999999999996      8.0999999999999996
   132   1      2.0249999999999999                  10.125                  10.125
   133   3      2.0249999999999999                  10.125      8.0999999999999996
   134   3                       0                  10.125                  10.125
   135   3      2.0249999999999999      8.0999999999999996                  10.125
   136   4                       0      8.0999999999999996      12.149999999999999
   137   2      2.0249999999999999                  10.125      14.174999999999999
   138   3      2.0249999999999999                  10.125      12.149999999999999
   139   3                       0                  10.125      14.174999999999999
   140   3      2.0249999999999999      8.0999999999999996      14.174999999999999
   141   4                       0      8.0999999999999996      16.199999999999999
   142   1      2.0249999999999999                  10.125      18.224999999999998
   143   3      2.0249999999999999                  10.125      16.199999999999999
   144   3                       0                  10.125      18.224999999999998
   145   3      2.0249999999999999      8.0999999999999996      18.224999999999998
   146   4                       0      8.0999999999999996                   20.25
   147   2      2.0249999999999999                  10.125      22.274999999999999
   148   3      2.0249999999999999                  10.125                   20.25
   149   3                       0                  10.125      22.274999999999999
   150   3      2.0249999999999999      8.0999999999999996      22.274999999999999
   151   4                       0      8.0999999999999996      24.299999999999997
   152   2      2.0249999999999999                  10.125      26.324999999999996
   153   3      2.0249999999999999                  10.125      24.299999999999997
   154   3                       0                  10.125      26.324999999999996
   155   3      2.0249999999999999      8.0999999999999996      26.324999999999996
   156   4                       0      8.0999999999999996      28.349999999999998
   157   2      2.0249999999999999                  10.125      30.374999999999996
   158   3      2.0249999999999999                  10.125      28.349999999999998
   159   3                       0                  10.125      30.374999999999996
   160   3      2.0249999999999999      8.0999999999999996      30.374999999999996
   161   4                       0      8.0999999999999996      32.399999999999999
   162   2      2.0249999999999999                  10.125      34.424999999999997
   163   3      2.0249999999999999                  10.125      32.399999999999999
   164   3                       0                  10.125      34.424999999999997
   165   3      2.0249999999999999      8.0999999999999996      34.424999999999997
   166   4                       0      8.0999999999999996      36.449999999999996
   167   2      2.0249999999999999                  10.125      38.474999999999994
   168   3      2.0249999999999999                  10.125      36.449999999999996
   169   3                       0                  10.125      38.474999999999994
   170   3      2.0249999999999999      8.0999999999999996      38.474999999999994
   171   4                       0      8.0999999999999996                    40.5
   172   1      2.0249999999999999                  10.125      42.524999999999999
   173   3      2.0249999999999999                  10.125                    40.5
   174   3                       0                  10.125      42.524999999999999
   175   3      2.0249999999999999      8.0999999999999996      42.524999999999999
   176   4                       0      8.0999999999999996      44.549999999999997
   177   2      2.0249999999999999                  10.125      46.574999999999996
   178   3      2.0249999999999999                  10.125      44.549999999999997
   179   3                       0                  10.125      46.574999999999996
   180   3      2.0249999999999999      8.0999999999999996      46.574999999999996
   181   4                       0      12.149999999999999                       0
   182   2      2.0249999999999999      14.174999999999999      2.0249999999999999
   183   3      2.0249999999999999      14.174999999999999                       0
   184   3                       0      14.174999999999999      2.0249999999999999
   185   3      2.0249999999999999      12.149999999999999      2.0249999999999999
   186   4                       0      12.149999999999999      4.0499999999999998
   187   1      2.0249999999999999      14.174999999999999      6.0749999999999993
   188   3      2.0249999999999999      14.174999999999999      4.0499999999999998
   189   3                       0      14.174999999999999      6.0749999999999993
   190   3      2.0249999999999999      12.149999999999999      6.0749999999999993
   191   4                       0      12.149999999999999      8.0999999999999996
   192   2      2.0249999999999999      14.174999999999999                  10.125
   193   3      2.0249999999999999      14.174999999999999      8.0999999999999996
   194   3                       0      14.174999999999999                  10.125
   195   3      2.0249999999999999      12.149999999999999                  10.125
   196   4                       0      12.149999999999999      12.149999999999999
   197   1      2.0249999999999999      14.174999999999999      14.174999999999999
   198   3      2.0249999999999999      14.174999999999999      12.149999999999999
   199   3                       0      14.174999999999999      14.174999999999999
   200   3      2.0249999999999999      12.149999999999999      14.174999999999999
   201   4                       0      12.149999999999999      16.199999999999999
   202   2      2.0249999999999999      14.174999999999999      18.224999999999998
   203   3      2.0249999999999999      14.174999999999999      16.199999999999999
   204   3                       0      14.174999999999999      18.224999999999998
   205   3      2.0249999999999999      12.149999999999999      18.224999999999998
   206   4                       0      12.149999999999999                   20.25
   207   2      2.0249999999999999      14.174999999999999      22.274999999999999
   208   3      2.0249999999999999      14.174999999999999                   20.25
   209   3                       0      14.174999999999999      22.274999999999999
   210   3      2.0249999999999999      12.149999999999999      22.274999999999999
   211   4                       0      12.149999999999999      24.299999999999997
   212   2      2.0249999999999999      14.174999999999999      26.324999999999996
   213   3      2.0249999999999999      14.174999999999999      24.299999999999997
   214   3                       0      14.174999999999999      26.324999999999996
   215   3      2.0249999999999999      12.149999999999999      26.324999999999996
   216   4                       0      12.149999999999999      28.349999999999998
   217   1      2.0249999999999999      14.174999999999999      30.374999999999996
   218   3      2.0249999999999999      14.174999999999999      28.349999999999998
   219   3                       0      14.174999999999999      30.374999999999996
   220   3      2.0249999999999999      12.149999999999999      30.374999999999996
   221   4                       0      12.149999999999999      32.399999999999999
   222   2      2.0249999999999999      14.174999999999999      34.424999999999997
   223   3      2.0249999999999999      14.174999999999999      32.399999999999999
   224   3                       0      14.174999999999999      34.424999999999997
   225   3      2.0249999999999999      12.149999999999999      34.424999999999997
   226   4                       0      12.149999999999999      36.449999999999996
   227   2      2.0249999999999999      14.174999999999999      38.474999999999994
   228   3      2.0249999999999999      14.174999999999999      36.449999999999996
   229   3                       0      14.174999999999999      38.474999999999994
   230   3      2.0249999999999999      12.149999999999999      38.474999999999994
   231   4                       0      12.149999999999999                    40.5
   232   2      2.0249999999999999      14.174999999999999      42.524999999999999
   233   3      2.0249999999999999      14.174999999999999                    40.5
   234   3                       0      14.174999999999999      42.524999999999999
   235   3      2.0249999999999999      12.149999999999999      42.524999999999999
   236   4                       0      12.149999999999999      44.549999999999997
   237   1      2.0249999999999999      14.174999999999999      46.574999999999996
   238   3      2.0249999999999999      14.174999999999999      44.549999999999997
   239   3                       0      14.174999999999999      46.574999999999996
   240   3      2.0249999999999999      12.149999999999999      46.574999999999996
   241   4                       0      16.199999999999999                       0
   242   1      2.0249999999999999      18.224999999999998      2.0249999999999999
   243   3      2.0249999999999999      18.224999999999998                       0
   244   3                       0      18.224999999999998      2.0249999999999999
   245   3      2.0249999999999999      16.199999999999999      2.0249999999999999
   246   4                       0      16.199999999999999      4.0499999999999998
   247   2      2.0249999999999999      18.224999999999998      6.0749999999999993
   248   3      2.0249999999999999      18.224999999999998      4.0499999999999998
   249   3                       0      18.224999999999998      6.0749999999999993
   250   3      2.0249999999999999      16.199999999999999      6.0749999999999993
   251   4                       0      16.199999999999999      8.0999999999999996
   252   1      2.0249999999999999      18.224999999999998                  10.125
   253   3      2.0249999999999999      18.224999999999998      8.0999999999999996
   254   3                       0      18.224999999999998                  10.125
   255   3      2.0249999999999999      16.199999999999999                  10.125
   256   4                       0      16.199999999999999      12.149999999999999
   257   2      2.0249999999999999      18.224999999999998      14.174999999999999
   258   3      2.0249999999999999      18.224999999999998      12.149999999999999
   259   3                       0      18.224999999999998      14.174999999999999
   260   3      2.0249999999999999      16.199999999999999      14.174999999999999
   261   4                       0      16.199999999999999      16.199999999999999
   262   1      2.0249999999999999      18.224999999999998      18.224999999999998
   263   3      2.0249999999999999      18.224999999999998      16.199999999999999
   264   3                       0      18.224999999999998      18.224999999999998
   265   3      2.0249999999999999      16.199999999999999      18.224999999999998
   266   4                       0      16.199999999999999                   20.25
   267   2      2.0249999999999999      18.224999999999998      22.274999999999999
   268   3      2.0249999999999999      18.224999999999998                   20.25
   269   3                       0      18.224999999999998      22.274999999999999
   270   3      2.0249999999999999      16.199999999999999      22.274999999999999
   271   4                       0      16.199999999999999      24.299999999999997
   272   1      2.0249999999999999      18.224999999999998      26.324999999999996
   273   3      2.0249999999999999      18.224999999999998      24.299999999999997
   274   3                       0      18.224999999999998      26.324999999999996
   275   3      2.0249999999999999      16.199999999999999      26.324999999999996
   276   4                       0      16.199999999999999      28.349999999999998
   277   2      2.0249999999999999      18.224999999999998      30.374999999999996
   278   3      2.0249999999999999      18.224999999999998      28.349999999999998
   279   3                       0      18.224999999999998      30.374999999999996
   280   3      2.0249999999999999      16.199999999999999      30.374999999999996
   281   4                       0      16.199999999999999      32.399999999999999
   282   2      2.0249999999999999      18.224999999999998      34.424999999999997
   283   3      2.0249999999999999      18.224999999999998      32.399999999999999
   284   3                       0      18.224999999999998      34.424999999999997
   285   3      2.0249999999999999      16.199999999999999      34.424999999999997
   286   4                       0      16.199999999999999      36.449999999999996
   287   2      2.0249999999999999      18.224999999999998      38.474999999999994
   288   3      2.0249999999999999      18.224999999999998      36.449999999999996
   289   3                       0      18.224999999999998      38.474999999999994
   290   3      2.0249999999999999      16.199999999999999      38.474999999999994
   291   4                       0      16.199999999999999                    40.5
   292   1      2.0249999999999999      18.224999999999998      42.524999999999999
   293   3      2.0249999999999999      18.224999999999998                    40.5
   294   3                       0      18.224999999999998      42.524999999999999
   295   3      2.0249999999999999      16.199999999999999      42.524999999999999
   296   4                       0      16.199999999999999      44.549999999999997
   297   2      2.0249999999999999      18.224999999999998      46.574999999999996
   298   3      2.0249999999999999      18.224999999999998      44.549999999999997
   299   3                       0      18.224999999999998      46.574999999999996
   300   3      2.0249999999999999      16.199999999999999      46.574999999999996
   301   4                       0                   20.25                       0
   302   2      2.0249999999999999      22.274999999999999      2.0249999999999999
   303   3      2.0249999999999999      22.274999999999999                       0
   304   3                       0      22.274999999999999      2.0249999999999999
   305   3      2.0249999999999999                   20.25      2.0249999999999999
   306   4                       0                   20.25      4.0499999999999998
   307   1      2.0249999999999999      22.274999999999999      6.0749999999999993
   308   3      2.0249999999999999      22.274999999999999      4.0499999999999998
   309   3                       0      22.274999999999999      6.0749999999999993
   310   3      2.0249999999999999                   20.25      6.0749999999999993
   311   4                       0                   20.25      8.0999999999999996
   312   2      2.0249999999999999      22.274999999999999                  10.125
   313   3      2.0249999999999999      22.274999999999999      8.0999999999999996
   314   3                       0      22.274999999999999                  10.125
   315   3      2.0249999999999999                   20.25                  10.125
   316   4                       0                   20.25      12.149999999999999
   317   1      2.0249999999999999      22.274999999999999      14.174999999999999
   318   3      2.0249999999999999      22.274999999999999      12.149999999999999
   319   3                       0      22.274999999999999      14.174999999999999
   320   3      2.0249999999999999                   20.25      14.174999999999999
   321   4                       0                   20.25      16.199999999999999
   322   2      2.0249999999999999      22.274999999999999      18.224999999999998
   323   3      2.0249999999999999      22.274999999999999      16.199999999999999
   324   3                       0      22.274999999999999      18.224999999999998
   325   3      2.0249999999999999                   20.25      18.224999999999998
   326   4                       0                   20.25                   20.25
   327   1      2.0249999999999999      22.274999999999999      22.274999999999999
   328   3      2.0249999999999999      22.274999999999999                   20.25
   329   3                       0      22.274999999999999      22.274999999999999
   330   3      2.0249999999999999                   20.25      22.274999999999999
   331   4                       0                   20.25      24.299999999999997
   332   2      2.0249999999999999      22.274999999999999      26.324999999999996
   333   3      2.0249999999999999      22.274999999999999      24.299999999999997
   334   3                       0      22.274999999999999      26.324999999999996
   335   3      2.0249999999999999                   20.25      26.324999999999996
   336   4                       0                   20.25      28.349999999999998
   337   1      2.0249999999999999      22.274999999999999      30.374999999999996
   338   3      2.0249999999999999      22.274999999999999      28.349999999999998
   339   3                       0      22.274999999999999      30.374999999999996
   340   3      2.0249999999999999                   20.25      30.374999999999996
   341   4                       0                   20.25      32.399999999999999
   342   2      2.0249999999999999      22.274999999999999      34.424999999999997
   343   3      2.0249999999999999      22.274999999999999      32.399999999999999
   344   3                       0      22.274999999999999      34.424999999999997
   345   3      2.0249999999999999                   20.25      34.424999999999997
   346   4                       0                   20.25      36.449999999999996
   347   2      2.0249999999999999      22.274999999999999      38.474999999999994
   348   3      2.0249999999999999      22.274999999999999      36.449999999999996
   349   3                       0      22.274999999999999      38.474999999999994
   350   3      2.0249999999999999                   20.25      38.474999999999994
   351   4                       0                   20.25                    40.5
   352   2      2.0249999999999999      22.274999999999999      42.524999999999999
   353   3      2.0249999999999999      22.274999999999999                    40.5
   354   3                       0      22.274999999999999      42.524999999999999
   355   3      2.0249999999999999                   20.25      42.524999999999999
   356   4                       0                   20.25      44.549999999999997
   357   2      2.0249999999999999      22.274999999999999      46.574999999999996
   358   3      2.0249999999999999      22.274999999999999      44.549999999999997
   359   3                       0      22.274999999999999      46.574999999999996