(written by ASE)

8640 atoms
4 atom types

0.0      48.599999999999994  xlo xhi
0.0      48.599999999999994  ylo yhi
0.0      48.599999999999994  zlo zhi

Atoms # atomic

     1   4     0.22502878924426151    -0.11283972698055815     0.27257619297027591
     2   1      2.0120415959888285       2.045783821120299      2.0989327285333932
     3   3      2.1308251583883733      2.0034564159107684    -0.12660753641221761
     4   3   -0.038777159974226136      1.9615768299970604      1.7781971966866823
     5   3      2.1106399265635103    -0.02656767652996574      2.0132664429332543
     6   4     0.21330942452714491    -0.25440691253919956      4.1813353242100666
     7   2      1.8876989516954028      1.9981919677740758       6.130080214955882
     8   3      2.0912105701119112      2.1768803789288786      4.1507996283951751
     9   3    0.032468442355971856      2.1312909224360355      6.1052977083443212
    10   3      2.0367304571067759    0.052949037326101636      5.8803560283497793
    11   4   -0.015285599378882679    -0.36659008620686689      8.1394981421273584
    12   2      1.9428935196687593      2.0471780179695998      10.182173519846966
    13   3      2.1890701344252008      1.8779659494220504      8.0803741752123202
    14   3    0.043007122133331029      1.8202340883546944      10.053139193662998
    15   3      2.3439052254573842    0.099647929095755067      10.223619634172941
    16   4     0.10157866919382239    -0.28423096185809127       12.21806725133078
    17   2       2.060832785268786      2.0494781075363737      14.347206020522764
    18   3      2.0213199184443313      2.1470718889347982      12.074044842255224
    19   3   -0.063654990700607747      2.0030885362231481         14.197375765752
    20   3      1.9994223137091194    0.099452007202835549      13.985462787310368
    21   4    0.042772340823235999    -0.34652811683519857      16.219544688496214
    22   1      1.9788197915408883      2.0589490504961989      18.276458634042243
    23   3      2.0567172388068293      1.9691964541739277       16.21118688481269
    24   3   -0.082005845023055648      1.9314691299829001      18.432920373328315
    25   3      2.2591266709019999   0.0019858495674791982      18.320027256345814
    26   4     -0.1264704465084027   0.0039215453580444121      19.987222684385824
    27   2      1.8675496008836192      2.0577102225566541      22.260147942378907
    28   3      2.2276363814080828      2.0234095252497526      20.366586428438978
    29   3    0.016106524977102223      2.2390220178755005      22.240790025487154
    30   3       2.059276796223966     0.14930632059362184       22.49145895691025
    31   4   -0.070826659997018274    -0.33887694605314522       24.36118274469796
    32   2      1.9136279645271634      2.0144537385773904      26.251253287950782
    33   3      1.9858176909330538      2.2387440250278812       24.36310802383316
    34   3    0.022761810685023143      2.0941590694808028      26.422024239270655
    35   3      2.0812327257111551     0.13786525164464988      26.246897169206388
    36   4    -0.14331793718916949    -0.36592390794145602      28.275812266172071
    37   2      1.9314375930079017      2.0046537359064338      30.234825341417697
    38   3       2.121426632773586      2.0355147263998612      28.329780811048909
    39   3    0.059913748444803509      2.1801585179611198       30.40559504598005
    40   3       2.022375189542998    0.096674547566376293      30.472084502992431
    41   4    -0.35994375390990108   -0.050455871388430433      32.467578397373615
    42   2      1.9642441989674111      1.9258938214189785      34.403456857160229
    43   3      2.0550220230861904      2.1483516218031196      32.480794449338461
    44   3    0.084473668128837151      1.9129754481738084      34.442038534454554
    45   3      2.2639656593126798    0.055382951018691784      34.430091159518085
    46   4    -0.36070782770864879    -0.18745658712596711      36.339773646433578
    47   2      1.9574694666366177      1.9192394873452918      38.397802506062447
    48   3      2.0890964157618699      2.0893001000625793      36.442223485545227
    49   3    0.078237270013378837      2.1374885383429447      38.516184170268424
    50   3      2.0759693302435758    0.065807654760141859      38.498052984613622
    51   4   -0.093028827746828358    -0.24269781025265269       40.53960059842273
    52   2      2.0534491439822076      2.0443065545523238      42.492865344942118
    53   3      2.0999383652826937      2.1743251494405156      40.468535544888461
    54   3    0.033651116583764913      2.1647646155141955      42.405883599401491
    55   3      2.0494246546822841     0.16880734189051205      42.560544715113956
    56   4     0.10823919845969482    -0.34026781548142704      44.511807870042098
    57   2      2.0359028215662858      1.9080625048054356      46.545511643475656
    58   3      1.9630802432432746       2.304582949966504      44.467456118344472
    59   3      0.1051219186374469       2.218501500437664       46.53763452702399
    60   3      2.0501133057574643      0.0688551364827414      46.345001557310198
    61   4   -0.010449320211126694      3.6965134827077932     0.10176590877172663
    62   2      2.0493103558614041      5.9952119331483384      2.1057825591528077
    63   3       2.001124236169777      6.3461383119409644   -0.099143501195994951
    64   3     0.01828086361581481      6.2616513086501717      1.9525503500900656
    65   3      1.9811340127657198      4.1258631994312776       1.737655092783398
    66   4    -0.17370829838297744      4.0000232744334907      4.4027444319330105
    67   1      1.9941390467552922      6.0620970083555488      6.1274533206518971
    68   3        2.10533056203165      5.9384544651854947      3.9920743978661997
    69   3   -0.064843855165848147      6.0199336211681285      5.9306112585145101
    70   3      2.2050290731391891      3.9712242693559472      6.1736591523524647
    71   4    -0.18280035744485815      4.2558077220723893      8.2946323580382124
    72   2       1.917265894186396      6.2043781437954557       10.15399355399806
    73   3      2.1444795210042513      6.1214018504897654      8.1917213072001225
    74   3    0.031537494896025635       6.129119127374687      10.115950439635581
    75   3      1.8711487935118132      3.9923592607147396      9.8957396176842529
    76   4    -0.06208036759338683      4.3287829774778963      12.209928680378136
    77   1      1.9769816139718852      6.0835862932400664      14.192379760289324
    78   3      2.0208683427145435      5.8000355735246023      12.058121532270652
    79   3    -0.10853685438625331      5.9945169238673062      14.142189283750625
    80   3      1.9508196163569571      3.9925135072226805      14.215458954631435
    81   4    -0.22141983713967461      4.3417948175292969      16.127226851215731
    82   2      1.8367311653550076      6.0914183445112116      18.286265079782737
    83   3      2.0902025506016639      6.1215300182766246      16.291299284383875
    84   3   -0.012893772875602536      6.1763971137039473      18.327325185791228
    85   3      2.0308624888940678      4.1380343023294364      18.244872978388077
    86   4    -0.34263549395079029      3.9404386926949138      20.107185716668898
    87   1      1.9955562958218975      6.0771483858705917       22.25254435193964
    88   3      2.2676269939711196      6.1011253894076898      20.196631306862475
    89   3    -0.05310142089496539      6.1161815356339657      22.291090451655908
    90   3      2.3108505342369159      3.9996276499175365       22.28243623476305
    91   4    -0.39119736104105218      3.9782948713170989      24.254388666051419
    92   2       1.946413658887151      6.0750613814298591      26.302596072561862
    93   3      2.0698949094093346      6.0467688258771863      24.387892267957813
    94   3    0.035712043272768772      6.2223508212024372       26.48072091525821
    95   3      1.9899814707608354      4.0910174784254902      26.513609660439911
    96   4    -0.36333063601293142      4.0341991754024331      28.166725281295527
    97   1      1.9462577394725957      6.1003546916041298      30.392023716061498
    98   3      2.1376698058029269      6.1980052145090143      28.351137804755446
    99   3    -0.10806711303220028      6.2631579944294327      30.403289364240504
   100   3      2.2366488163567948      4.0217451464147471      30.355184943415924
   101   4    -0.31428456585164938       3.833626290543771        32.3339999132386
   102   2      2.0069108393761739      5.9285608399428718       34.40708227311324
   103   3      2.0991574719421409      6.1348554704739637      32.502669609949237
   104   3    0.085747286032919673      6.3161613750358141      34.407414246478517
   105   3      1.9395966176794253      4.0632998977917705      34.537297019883859
   106   4     -0.3878960213411497      3.9532856993316106       36.34210688912458
   107   2      1.9338883676947864      6.0007256584984461       38.45500222047221
   108   3       1.963660356325448        6.31452143369712      36.459699554035488
   109   3    0.042609824626164125      6.2736286259694758      38.536346732574025
   110   3      1.9887158876464912      4.1408790291977287      38.365931309781637
   111   4    -0.16377989912233543      3.8429274108158298      40.512986850986252
   112   2      1.9729366928387746      6.0837772632347074      42.585950429284736
   113   3      2.1964460127939018      6.1865220591654237      40.358078060501427
   114   3    0.098495627523691523      6.1899599960930081      42.298559485080638
   115   3      2.0743388926892696      4.1719835552506828      42.343856240166097
   116   4   -0.096006276343688426      3.9267169203289947      44.747561835887666
   117   2      2.0543053136314944      6.0549612411065699      46.631323786069139
   118   3      2.0532001577733214       6.100884627244147      44.465125737872221
   119   3    0.078461866806724595      6.2029187606040281      46.382322396758973
   120   3      2.0391708042091032      4.1753685443234509      46.616031989160007
   121   4    0.079171751736705695       8.184526489383142     0.31578735334340086
   122   1      1.9740173041262072      10.162826286363698      2.0678189026391176
   123   3      2.0263636717314961      9.9304779032925961   -0.038454582205221167
   124   3   -0.078896696952434744      10.144015012791137      1.9221413949373627
   125   3      2.1351415453853839      8.0594452443731743      2.0933659670257048
   126   4   -0.082071631584104174      7.9649818691426431      4.4348409978714063
   127   2      2.0174071670117133      10.182585115789612      6.0049661636207974
   128   3      2.2910842653370653       10.24127678361134      4.1060709578411361
   129   3    0.059891282369784998      10.063160794538533      5.9842424000632315
   130   3      2.0774296206055549      8.1265147564600095      5.8927526580985319
   131   4  -0.0048720703230218012      8.4006737551890751       8.042150537125087
   132   1      2.0212216391708364      10.156351602049545      10.152346035188344
   133   3      1.8580912273173986      9.8931395660508255      8.0641781395169208
   134   3     -0.1036950204263425      9.9091094589183015      10.161456439113001
   135   3      2.1455258559763553      8.0541996427640523      10.315349436767756
   136   4     0.20655750519981533      8.4176674825748101      12.190022230092161
   137   2      2.1340857110999747      10.167837663542825      14.224901840800873
   138   3      1.7869626901437112      10.218838428126869      12.229983840688638
   139   3    -0.11401002617868011      9.9304992431618828      14.262136169930457
   140   3      2.0914552354607059        8.14471170027028      13.968699615577576
   141   4   -0.029067541510452329      8.4312911751495232      16.281283011764014
   142   1      2.0291420129831121      10.171468608182783      18.218806671937035
   143   3      1.9781954857042825       9.894370798299418      16.143515294007749
   144   3   -0.056093144513423926       9.931809861267352      18.225447869207965
   145   3      2.2498877730944447      8.0415607189530185      18.267603130979293
   146   4    -0.28571109901806918      8.3336047254791747      20.092843837398362
   147   2       1.964391750299779      10.092396785994771      22.214348080197851
   148   3      2.0918131181453696      10.036519984582268      20.340092316935223
   149   3    0.093668720956914614      10.023976668162366      22.406597268368198
   150   3      2.1751901295177665      8.1608993412428585      22.408486758592321
   151   4    -0.19246480511300051       8.091698062394352      24.119125866735452
   152   2      1.9605038240192014      10.146837473879868      26.276639226095803
   153   3      2.0745016033170094      10.123767760704531      24.396977797807182
   154   3    0.064869856996599015      10.000458749860689      26.456042954456269
   155   3      2.1480257776229843      8.1132582972114022      26.355849765178821
   156   4     -0.1547088931532305      7.9512892887829505      28.279343132948814
   157   2       1.891684944371264      10.122532319489313      30.303990718853111
   158   3      2.1415366353561649      9.9635843727744948      28.408840380300163
   159   3     0.03998452777935689      10.208753600390546      30.372624817644255
   160   3      2.0832156145073193      8.2197138116277451      30.658022049118539
   161   4   -0.083662288314824085      7.8249854135378749      32.371123495624516
   162   2      1.9291200557748089      10.118820547563022      34.401733419706382
   163   3      2.0256047556807073      10.334662571483461      32.459173819948937
   164   3    0.032919250851325348      10.212824546004791      34.494116570574484
   165   3      2.1238973556688956      8.2353920569121737      34.356341492055073
   166   4    -0.27813587916976201      7.8852636881800358      36.379917950223486
   167   2      1.9835024547877056      10.032257601456134      38.441640886941599
   168   3      2.2246620986891465      10.201357949563752      36.367567081615142
   169   3      0.0960074225231108      10.149853358118415      38.225021520262082
   170   3      2.1906625654169649      8.1564757005780901      38.439124730743707
   171   4  -0.0038798354007324679      8.0398481368681107      40.709716924599306
   172   1      2.0652678554740183      10.118706392245064      42.504116907739089
   173   3      2.0196812984663612      10.263171801283331      40.341362267539147
   174   3   -0.020173660325142517      10.142292338074428      42.401990046329637
   175   3      2.1068697448981899      8.0548909077291793      42.268028691672733
   176   4    0.037292142228121349      8.1810235180430659      44.886532442103771
   177   2      2.0964016691857523      10.179588899090922      46.693089861217565
   178   3      2.0661280933658737      10.348798222778941      44.538771993086826
   179   3    0.085386935805398009      10.103810056509547      46.444074433353023
   180   3      2.0678752949202011       8.138005129201888      46.309323755402048
   181   4    -0.24933437093541605      11.929567187903785    0.088208355483189463
   182   2      1.8559434560662809      14.194929296210928        2.00442501961499
   183   3      2.1569561203819392      14.275364419961244     0.07928199307161729
   184   3   -0.022507553466159656      14.222298533791443      2.0791505054862465
   185   3      2.2146536997719792        12.2297227833518      1.9761920319385291
   186   4    -0.33412335584341446       12.16315882489342       4.208119991317294
   187   1      1.9753166717524402      14.164627797390759      6.0957364378028336
   188   3      2.1756078158293528      14.122013038572995      4.0001260543542569
   189   3    -0.10191559786331271       14.10895056294714      5.8752065794664459
   190   3      2.0361263380076537      12.092843939573145      6.3333895110637908
   191   4     0.30090720056273451      12.211286651303309      8.1478703505488159
   192   2      2.2178381328010808      14.169645564182831      10.105910500030648
   193   3      1.7540897407185254      14.235790986338742      8.1846076393004221
   194   3   -0.096536628344117609      14.328227719432469      10.275701135898457
   195   3      1.7724053263066122      12.207874742523577      10.016203968288911
   196   4     0.35992277158408492      12.240925846340939       12.14303954578414
   197   1      2.0437769250174505      14.203003848733996      14.137196206701729
   198   3      2.0533930293254148      14.003845190002805      12.074073970767721
   199   3   -0.092215835176036209       14.14589482941309      14.048019833378701
   200   3      1.8039544217982824      12.068972855377046      14.263508118041411
   201   4   -0.015181918625056147      12.432218235601498      16.038515527851835
   202   2      2.0112649664738966      14.195008651466308      18.091734304172427
   203   3        1.91326759945656      14.106073755992723       16.22417653661001
   204   3    0.054553098406380049      14.229046125165516      18.436120172974576
   205   3      1.9230278286366782      12.223029894476163      18.386322943428823
   206   4   -0.054215793051661007      12.215695018198057      19.899213907040345
   207   2      2.0852947577925502      14.055205324223534      22.250038682395562
   208   3      2.0576102720301521      14.208554027505437      20.364657935169262
   209   3    0.014618652746848666      14.233398735895094      22.366368422806026
   210   3      2.0048448886544343      12.124323605528538      22.312963784879056
   211   4    -0.17106576861671735      12.313086113652776      24.317538365345772
   212   2      1.9906228197713076      14.307559341592178      26.349549382291936
   213   3      1.9884695241094401      14.019327187911999       24.33298875492914
   214   3     0.06884520319772662      14.116841772881331      26.365403224497204
   215   3      1.9965956123114785      12.051599543188146      26.504908553053141
   216   4    -0.20847138012188599      12.223867014098161       28.16951123892969
   217   1      2.0541151330511158      14.143881966565566      30.340081193228063
   218   3      2.1692304443565193      14.189146072159101      28.287670507749272
   219   3   -0.015839864705174695      14.206261625015232      30.433964935172128
   220   3      2.2589678140503473       12.05610566442288      30.345641631740804
   221   4    -0.25250519421583534      12.068872670487039      32.386423097970386
   222   2      1.8878501773473604       14.13680863171264      34.433744239153505
   223   3      2.2004198920972278      14.155900513687669       32.47551987517631
   224   3    0.044567248232088137      14.255148241194057      34.254841309256548
   225   3      2.0714616860288544      12.231780385870302       34.49973074546044
   226   4     -0.2975876482599204       12.04511172208945      36.543806988946677
   227   2      2.0415418550055673      14.158372158602267      38.461344435275585
   228   3      1.9850992435263355      14.414841809434513      36.375510295292308
   229   3    0.087602591237790628      14.432277399457933       38.47975447788258
   230   3      1.9556525168308623      12.266687736832703      38.298697510711087
   231   4    0.042974262716137024      12.084087967084926      40.727521122503632
   232   2      1.9996570717594246      14.169524364856164      42.616070463927549
   233   3      2.1528976742130839       14.27536328387737      40.350456823595408
   234   3    0.097556800157233378      14.192591433116513       42.28421494467819
   235   3      2.1013596703462456      12.245614400473576      42.269810457503191
   236   4     0.23002292561750018      11.892405581328912      44.736953994168701
   237   1      2.0809562941735558      14.147659659883661      46.620058709611115
   238   3      2.0327917852010229      14.074218743214358      44.475642225954729
   239   3 -0.00015162426054831212      14.390708010262104      46.534606173651163
   240   3       1.993812409864322      12.095317117371916       46.61818273718621
   241   4    0.073572924591372338      16.374076038322279    -0.12282276294270103
   242   1        2.09148116192106      18.233842646663739      2.0114408248592826
   243   3      2.1286893364005102      17.952023226865691   -0.070223952959371172
   244   3    0.023026535717785217      18.185655056722862      2.0032543534678164
   245   3      2.1783549296630311      16.132928350526274      2.1249515723180568
   246   4    -0.10115890531809241      16.011504404840402      4.3570437659225982
   247   2      2.1686707676539512      18.128095193450601      5.9884660722377143
   248   3      2.1132938506193115      18.384851068929514      4.1064095214969214
   249   3    0.086558853263562274      18.449213223834672      6.0356635101207701
   250   3      1.8664464690601528      16.229374161214754      5.9971628905869956
   251   4     0.35785094179702753      16.272764111248232      8.1805523951475934
   252   1      2.1141682176008709      18.204467552223079      10.146567946617045
   253   3      1.9256136322851425      18.121842998355316      8.0782869240176627
   254   3   -0.042606919677382386       18.07122886203225       10.12787153148218
   255   3      1.9914552908405783      16.111047088641062      10.213120771222169
   256   4     0.34952604977313034      16.291129085534269      12.128842854379522
   257   2      2.1898128428111505      18.192367291406974      14.165036392951814
   258   3      1.9048520708389705      18.228006465183736      12.208743235165104
   259   3    0.010131861351078169      18.277634222583412       14.20016141148195
   260   3      1.9143665552306581       16.25929035603788      14.162772925331593
   261   4    0.079172003369057914      16.472941576776556      15.874219096385918
   262   1      2.0481472452928369      18.214749307706839      18.210381649210724
   263   3      1.8957794700794992      18.250635208007008      16.145543899594774
   264   3   -0.074897951837057081      18.186571497273192      18.416192786017504
   265   3      2.0662836588190681      16.125144859076965      18.357298410601125
   266   4    0.082839990968492899      16.166544707733273      19.914004294630413
   267   2      2.0333228500112388      18.036484333643607       22.29466039148873
   268   3      2.0096127227738645      18.241737259322313      20.338765104020421
   269   3    0.060408621318483867       18.24291988364126      22.339922920798976
   270   3      2.0445696811313665      16.135814765233196      22.414912891499053
   271   4    -0.15119615485351881      16.100141228880283      24.190045889732662
   272   1      2.0118283431312873      18.234910522390095      26.309367991739922
   273   3      2.0730529680407632      18.398034527095216      24.254314975506098
   274   3   -0.038452362397563104      18.115328181268964      26.429445807714377
   275   3      2.2023512181460303      16.160175667545374      26.265356182482709
   276   4     0.12153791540030756      16.415856936102724      28.548917131225124
   277   2      2.1646433340818474      18.252417453228436      30.342537170570843
   278   3      2.0487278484802038      17.979287172457887      28.418305844096654
   279   3  -0.0046956860910237598      18.145007211728977      30.205088627576988
   280   3      1.9945471736384102      16.240601811221374      30.601424253760989
   281   4     0.21364050787207609       16.21671640189896      32.269351535878172
   282   2      2.1053250535855548      18.209535999781277      34.469631639270872
   283   3      1.8715929247947927       18.35818246147895      32.364018865913046
   284   3   -0.037729045999001301       18.21321011309178      34.306716125748729
   285   3      2.0028023030891862      16.280216840702938      34.189218646152163
   286   4    -0.16199403106494922      16.130986813179657      36.718828479846103
   287   2      2.0461301649762831      18.225794459271398      38.586742542623412
   288   3       1.970235425137032      18.194999758120758      36.339884521907436
   289   3    0.077782828021259673      18.160480540788079      38.329808201743162
   290   3      2.1731020553254083      16.259122757221153      38.361061179622823
   291   4  -0.0052123818533199445      16.039411961933677      40.659615434074801
   292   1      2.0565092302844592      18.205833611821635      42.562860561487561
   293   3      2.0992794105955555      18.183285854829286      40.441508461365508
   294   3  -0.0080103095165544747      18.085485260284671      42.454999426781079
   295   3      2.0985035816905899      16.107215256250225      42.434326014484959
   296   4     0.30165462373918678      16.375994541969792      44.789314341112231
   297   2      2.1219689990172381      18.287686196674223      46.603452451529883
   298   3      1.9305902199400533      18.240020194237022      44.632660236723304
   299   3     0.10647573510177916      17.983449092098841      46.678241181394966
   300   3       2.174686087252967      16.213973360750479      46.387533218564883
   301   4   -0.016344446907587355      20.351616285150083    -0.15264701801626604
   302   2      2.0948221839154675      22.143582698298903      2.1093224187195889
   303   3      1.9807406999249419      22.306904938873519   -0.016606463226101677
   304   3     0.01344540358478959      22.264065221373418      2.0839494689323379
   305   3       2.009897516273524      20.281741083937689      1.8787805804225191
   306   4     0.16998220031745537      20.012959704311182      4.1821641518562336
   307   1      2.0365344111886747      22.287335184743604      6.0942804516634244
   308   3      2.1598512309074631      22.165772756222108      3.9932943408491646
   309   3    -0.03818319464031162       22.11818375528987      6.0602690585330885
   310   3      2.1837468506777293      20.201796569098807      6.2862671483038053
   311   4     0.35364446620512707       19.99939199731018      7.9122977191416952
   312   2      2.0131183566551725      22.136354312801718      10.166706870066152
   313   3      2.0952705669726557      22.387378520136842      8.1790077656847426
   314   3    0.057005456828645468       22.54527047742976      10.105365275624745
   315   3      1.9056115473154718      20.260419383560595      10.149375897087323
   316   4     0.30096065598535221      20.039782783634738       12.30922248859155
   317   1      2.0513661789643995       22.27050696050766       14.22410591371494
   318   3      1.9866854329282471      22.417074212828901      12.122889321379459
   319   3   -0.056846871592414208      22.408325573203623      14.257101159494308
   320   3      1.8964923662343907      20.200532785318991      14.119705771171562
   321   4     0.21598666549715148      20.093883491466762      15.961846067674657
   322   2      2.1085072382737948      22.185479728955329      18.202468585209136
   323   3      1.8932471631164245      22.157028212705299      16.300192049807695
   324   3    -0.04746442337049632       22.44748743730926       18.33054839015012
   325   3      1.8599847743356928      20.313473880795598      18.460961916926308
   326   4     0.12437344312842888      19.897811194502555      20.208007596160904
   327   1      2.0288186937265551      22.272664376248006      22.248602840411326
   328   3      2.0098309115031423      22.591340963102116      20.196871636657452
   329   3   -0.059655338047712156      22.442544061902808      22.420372347193045
   330   3      1.9990747071292978      20.225568220119726      22.208912121555841
   331   4     0.16160748278965964      20.102090511550582      23.962177795635384
   332   2      2.0045565047818603      22.175229954031881       26.33068427400903
   333   3       2.096439416079853      22.241834510315549       24.36343127996464
   334   3   -0.027640571703352247      22.406872143059939      26.221558618704485
   335   3      2.0040416213206274      20.296754587198087       26.54724477592444
   336   4   -0.050714833981285144      20.108953023001284      28.666476513956798
   337   1       1.999424442183255       22.23213404720115      30.375945718498258
   338   3      1.9306465759503475      22.518582423616991      28.283729866603302
   339   3    -0.10895438335821954      22.229516781947485      30.154799277395888
   340   3      1.8689448717736148      20.167303032916763      30.216651476121637
   341   4     0.25747861803468075      20.200649495755712      32.383066549530326
   342   2      2.1208740245083444      22.262500022472469      34.297329270385802
   343   3      1.8436824308647983      22.084225522657988      32.419568834124043
   344   3   -0.084350195931403693      22.377874708833406      34.410886572063745
   345   3      1.8196327801396965      20.220597906838265      34.406732914834819
   346   4    -0.10453969668507343      20.099835399969361      36.725528755278113
   347   2      2.0491107918518905      22.262275527488857      38.295664568769098
   348   3      2.0004846321617182      22.302456232344934      36.398076152407576
   349   3   -0.010662821235275252      22.316906682348815      38.337480101462184
   350   3      1.8555796328306506      20.255474575931096      38.408951025164328
   351   4    -0.16962499435949088      20.164266270927218      40.541233508586096
   352   2      2.0200795075811615       22.19991911707972       42.31695362798137
   353   3      1.9055061579545778      22.235671802079846      40.451386369957405
   354   3     0.11572140796239583      22.282329085600352      42.769002545380808
   355   3      1.9423480175131251      20.277106464069991      42.574608392406141
   356   4      0.1990421087492299      20.385878855720879      44.385215808219783
   357   2      2.0696241272355995      22.361807412362435      46.625083221177448
   358   3      2.0867363663723784      22.063607463032913      44.670718348401202
   359   3    0.065435656492247515      22.207201725801777      46.630978933846791