(written by ASE)

8640 atoms
4 atom types

0.0      48.599999999999994  xlo xhi
0.0      48.599999999999994  ylo yhi
0.0      48.599999999999994  zlo zhi

Atoms # atomic

     1   4     0.18398365177463413    -0.14125411876388885     0.27357196395750127
     2   1      2.0297665363606598      2.0127480817398862      2.0925103902289415
     3   3      2.1498538903560158      1.9823815349524525    -0.12943596992036399
     4   3  -0.0036256882119400182      1.8956277939952235      1.8077044391538801
     5   3      2.2207607479731197   -0.066856667923872903      2.0109351889966272
     6   4  -0.0070323016383355376    -0.18887257869639568      4.3355154512154188
     7   2      1.9094754542511214      1.9913322005144862       6.123466743080221
     8   3      2.1624384722734198      2.1412717837954434      4.1475140196364686
     9   3    0.048609168102089421      2.0935613430977451      6.0467190609054704
    10   3      2.0293226902765458     0.03782966625506954      5.8852269763728273
    11   4   -0.019984943389920178    -0.38297171098709365      8.1151646338036016
    12   2      1.9531578459516385      2.0354931917152923      10.173439242907929
    13   3      2.1724171561223073      1.8676445495981089      8.0785481714147309
    14   3    0.050923722063928735       1.799567466336361      10.080565849609172
    15   3      2.3544219958627592    0.087440385662830564      10.224678007298794
    16   4     0.10228680905411998    -0.28255160921879202      12.218243992510299
    17   2      2.0633079620253003      2.0436244973294895      14.349766109139445
    18   3      2.0438199574990903      2.1339556575638299      12.067613085647391
    19   3   -0.058292253848850742      2.0168916878690477       14.16001315747855
    20   3      1.9982258438732137    0.096666836179869778      13.990887889310349
    21   4    0.043001065636978794     -0.3468558450683884      16.225160266575383
    22   1      1.9784278825495993      2.0590085770942363      18.277500846116755
    23   3       2.043835869988432      1.9883031148277512      16.210299413010386
    24   3   -0.079689544354678607      1.9275326828242014      18.449855421832378
    25   3      2.2603942654343019   0.0022016502683528927      18.313458394468935
    26   4    -0.11316529868924391    0.001361397315254857      19.994625841779104
    27   2      1.8710812304392186      2.0566549876163549      22.257612109247297
    28   3       2.223366068107286      2.0131514536906061      20.365506136456013
    29   3    0.018221236446187609      2.2364065266364599      22.241935384905013
    30   3      2.0593614834643379     0.14765313459999915      22.499397746090988
    31   4   -0.078945114559847804    -0.33021754682684812       24.36540147186421
    32   2      1.9149928966711223      2.0091867817886002      26.254548369862114
    33   3      1.9793578596464849      2.2398152498546597      24.366964784010101
    34   3    0.025099140475841858      2.0815099630789096      26.433401075062275
    35   3      2.0876420965048648     0.13319337497640377      26.247594545221745
    36   4    -0.14578113948722071    -0.36094112526437894      28.267499997603959
    37   2      1.9326110642596717      2.0069041261763538      30.236945116501634
    38   3      2.1268940337991178      2.0268782270639925      28.332338006065182
    39   3    0.056743115752681365      2.1894426973365166      30.393949576245063
    40   3      2.0153160513628583    0.099326634644524167      30.479851384383981
    41   4    -0.35536821315788691   -0.041828296856848468      32.481237478485426
    42   2      1.9595280783117996      1.9280784542820317      34.407057054316006
    43   3       2.042198378129445      2.1662846907868887      32.482903204909512
    44   3     0.07904414523213428      1.9141315571860014      34.441972801900754
    45   3      2.2604285446237413    0.060225680118620568      34.417315982361878
    46   4    -0.35142998582303153    -0.19346684513477505      36.332825894070837
    47   2      1.9525236857680679      1.9216736615913079      38.401761997811931
    48   3       2.074819389306485      2.0793744951356623      36.442243833920507
    49   3    0.072637611845535008      2.1454158411967339      38.524872285379608
    50   3      2.0640317760235112    0.069553343422669237      38.507550879362213
    51   4   -0.076226373603402051    -0.25710678300059842      40.534631302269766
    52   2      2.0526850460952977      2.0302003860198261      42.493307290027573
    53   3       2.094815482086084      2.1860119587746789       40.46984220189114
    54   3    0.031346322539324782      2.1700437424540771      42.409219080224297
    55   3       2.053705639440278     0.16222279012087404      42.530892182865536
    56   4    0.028075233685325319    -0.36641205698070495       44.56311687228704
    57   2      2.0403631260467172      1.8942568004106373      46.547067542198718
    58   3      1.9552933490599411        2.29060920598838      44.466515484755902
    59   3     0.11177739664657153      2.2381706537989348      46.543885607103647
    60   3      2.0166074816268229    0.055588757235585443      46.350005127415201
    61   4   -0.056526026488938348      3.6475395205933987    0.082208171000332536
    62   2      2.0710408216748895      5.9736166454597734      2.1140828834086531
    63   3      2.0087589389572917      6.3554849745691699    -0.10313037141915811
    64   3     0.06085870455946113       6.251089746064757      1.9572955767241558
    65   3      2.0299808645110309      4.1065361853610556      1.7672977400518894
    66   4     -0.2008894083813165      3.9359995457682548      4.3376046211432575
    67   1      2.0080141131815221      6.0496692800805958      6.1175883738071946
    68   3      2.1484720286950711      5.9363707150962641      3.9933031941202226
    69   3   -0.047149332926680776      6.0246921165778398      5.9329302062966516
    70   3      2.2248223311930388      3.9551201065701513      6.1686184354246238
    71   4    -0.16980553064197726      4.2471962937903021      8.2900060949050332
    72   2      1.9342686719872848      6.1916919381001838      10.146679683234314
    73   3      2.1646980196783314      6.1139098864831043      8.1795547630017555
    74   3    0.043358237354821548      6.1530190301595207       10.05713108824134
    75   3      1.8620523825658615       3.983635087312134      9.8972378383540409
    76   4    0.011359236207134901      4.2772256882259221      12.258641897556309
    77   1      1.9870208817429338      6.0750184355956769      14.197009276708748
    78   3      1.9990466900056716      5.7953837810731823      12.052009324721563
    79   3   -0.099127987234868306      5.9773014684254209       14.14586173187759
    80   3      1.9633683117365017      3.9848340480891458      14.164224237324079
    81   4    -0.25126911354419762      4.3280405886212945      16.182671399317645
    82   2      1.8433904910004213      6.0946413588544006      18.284225627063964
    83   3      2.1167093188552646      6.1083256592943744      16.288394983802196
    84   3  -0.0084489452977938688      6.1791516513083495      18.285103826173504
    85   3      2.0201981918380039       4.136068085133064      18.254756671454892
    86   4    -0.33657940003993125      3.9380602740669541      20.106289098869492
    87   1      2.0038600709849907      6.0780760237411773      22.255617932746905
    88   3      2.2421456424787518      6.1159445603250706      20.197665901877148
    89   3   -0.042309840559707934      6.1042091016327387      22.313703079629935
    90   3      2.3178521987167846      3.9950668583986251      22.278646901955725
    91   4    -0.38337850285019659      3.9646298052016871      24.256988349248065
    92   2      1.9378731513427772       6.065135114740162      26.316207193887163
    93   3      2.1143018729332441      6.0429686719519289      24.397390781975247
    94   3    0.036388737495496572      6.2465417141942581      26.438512828764622
    95   3      1.9808510174921907      4.0899141647229147      26.519572162285382
    96   4    -0.37247757454765468      4.0120562758926956      28.195927117631914
    97   1      1.9484958064035145      6.1085700885556591      30.390703923762374
    98   3      2.1013141354043423      6.2165446574085168      28.346762822473735
    99   3    -0.10925856896735868      6.2720756216161622      30.422783503606887
   100   3      2.2327611273312464      4.0267695241015389      30.351877825393366
   101   4     -0.3115666109065468      3.8383290306002467      32.332094205774837
   102   2       2.005172505312371        5.93272584621017      34.409942945879479
   103   3       2.118592614522544      6.1190978667818134      32.505031308520699
   104   3     0.08724531569709966      6.3240361546670352      34.401324718944352
   105   3      1.9340473695868523      4.0688899781624963      34.552493912402539
   106   4    -0.39120304372086911      3.9567205243037957        36.3522237229393
   107   2      1.9282992457613879      6.0021647726728009      38.460501157493468
   108   3      1.9554445174540982      6.3310527447914868      36.464402079488266
   109   3    0.036935854314613117      6.2713172668687713      38.540674472318429
   110   3      1.9848388283867064      4.1447461521124387      38.359204755498006
   111   4    -0.16653296071289739      3.8460516567922691      40.520186982177691
   112   2      1.9624438114585072      6.0797546932157864      42.591164458636946
   113   3      2.1866463177628574      6.1811697729056831       40.36749096957432
   114   3    0.090365423511764298      6.1937053650402287      42.310145959184439
   115   3      2.0738715833979211      4.1742399203673717      42.362224173169423
   116   4    -0.10111863729104867      3.8762021809513589       44.72589143760041
   117   2      2.0581181539604363      6.0368249923005797      46.614094498451259
   118   3      2.0514171289372056      6.1133162808759725      44.476586670290239
   119   3    0.089101287303912868      6.2264298614942817        46.4125583301688
   120   3      2.0693707001203991      4.1696303093659726      46.612108833666916
   121   4     0.13383200519914673      8.0456353763821475     0.23833354002650015
   122   1      1.9996891145709945      10.145699639227912      2.0499770010126976
   123   3      1.9630963441760583      9.9711607158435651   -0.034535676322699035
   124   3   -0.067184140062777328      10.271115400654779       2.045102573121524
   125   3      2.1553558428165198      8.0576983832706208      2.0940020776359702
   126   4   -0.058700656572969169      7.9395903935323719      4.4348795262070402
   127   2      2.0002182700755489      10.185547926929653      6.0618145980170999
   128   3      2.2666766473083046      10.294751037638502      4.1147942918842464
   129   3    0.047773381954370184      10.108784452206612      5.9018187536565812
   130   3      2.0627728738557636      8.1245026751484932      5.8571951765513726
   131   4 -0.00059290790277066979      8.3039277472227671      8.1028555607447075
   132   1      2.0280056040466143      10.139325836400445      10.154462313422227
   133   3      1.8487554309748127      9.8276489925648214      8.0506588212836778
   134   3    -0.10146261587881943      9.8029771365509628      10.117126031810388
   135   3      2.1652149666283775      8.0391634271905783      10.295877045402014
   136   4     0.22447957837604643      8.3861389305467107      12.217699814934761
   137   2      2.1101232149383904      10.225590696035187      14.176616139358471
   138   3      1.7786335229821042      10.191270017102465      12.224921998421694
   139   3    -0.11670366745407705      9.9350501266886813      14.263380086574234
   140   3      2.0964058719015655      8.1301301027856123       13.99825088971293
   141   4   0.0033396557757410759      8.4312485061281848      16.260427366152751
   142   1      2.0202750515329542      10.175782309870572      18.209648181966845
   143   3      1.9749419367047527      9.8801846600309151      16.129030452070637
   144   3   -0.065071615706641162      9.9307332170911913      18.199667149659643
   145   3      2.2440214947329697      8.0428284202767824      18.244462479511007
   146   4    -0.28330957459012024      8.3273658149807641       20.10004428636039
   147   2       1.958076091641914      10.086769424219868      22.214405209437722
   148   3      2.0754205485730646      10.001923445139957      20.337807126637021
   149   3    0.092048217002145341      10.038441941494726      22.415217302774018
   150   3      2.1559533668536046      8.1639431006726024      22.446141424792188
   151   4    -0.18867320421160888      8.0883652934592885      24.134157527442088
   152   2      1.9636466232692853      10.137585491876719      26.279015353248173
   153   3       2.090221541111835      10.166010412558544       24.39808676169773
   154   3    0.067713604612257991      9.9925496315497391      26.437055069852772
   155   3       2.178505903535469      8.1136743361823545      26.321278289735627
   156   4    -0.16981015198817132      7.9386655350196227      28.295289875739574
   157   2      1.8911738886646798      10.123583176641278      30.301544610226866
   158   3      2.1271256335920388      9.9346513631234163      28.411574847464962
   159   3    0.041497314147791009      10.216278968452514      30.386671639240202
   160   3      2.0794164910283959      8.2260374390587572      30.688836155408968
   161   4   -0.080574158962068862      7.8360441530590323        32.3636727693059
   162   2      1.9185739035630727      10.142105528614897      34.397231941686165
   163   3      2.0307417440815851      10.361856294543665       32.45856369354162
   164   3    0.025464789461276838      10.207995221627042      34.488490823299607
   165   3      2.1380840310579066       8.248009388565098       34.33984349211854
   166   4    -0.28527535951097416      7.8900279279881209      36.381694391677151
   167   2      1.9786903246725525      10.033458735516191      38.446953879147188
   168   3      2.2249502348131154      10.172603665082448      36.367856860906109
   169   3    0.092462031753350882      10.157725434160289      38.232881847928333
   170   3      2.1770075299371143      8.1572362367192195      38.453505519439965
   171   4  -0.0077751629945596226      8.0429159114400477      40.718879111039278
   172   1       2.056419200807408      10.119683402657289      42.508475122731554
   173   3      2.0151562584132288      10.270212982372154      40.347690562263338
   174   3   -0.031847116537152914      10.142967224220493      42.408034890524256
   175   3      2.0976476278073419       8.056623588328538      42.271526007521267
   176   4    0.016728359955914159       8.193533910534553      44.900723553260974
   177   2      2.0990402440414693      10.174984265203435      46.695397054717716
   178   3      2.0637902328452076      10.353147781265053      44.544622122031001
   179   3    0.066765598949079477      10.128293750531183      46.446488721019875
   180   3        2.05635318298132      8.1585581649259709      46.329455815866282
   181   4      -0.180278834978474      11.921227414473238    0.015424985802965595
   182   2       1.840688990786824      14.210201921889547      2.0349463589178756
   183   3      2.0931557529719158      14.305692403384251    0.096496787143552185
   184   3   -0.038353267864706789      14.240322057217091      2.1571310248956936
   185   3      2.2085750541089286      12.242161494178667       1.991234336901305
   186   4    -0.18287685905237028      11.868672672403187      3.9963239175303116
   187   1      2.0217753726277778       14.16014375304283       6.061402391731546
   188   3      2.2315854703082576      14.104517063292642      4.0033423610304286
   189   3   -0.044877613595214479      14.133073112525357      5.9224990444128203
   190   3      2.0370401398623219      12.092957919484313      6.3741543936420468
   191   4     0.26072933210865684      12.331861919468821      8.1733197180683792
   192   2      2.1808759029527116      14.173768581455279      10.079612369315178
   193   3      1.8001067402233479      14.239243529456353      8.1399314259129447
   194   3     0.06098931462615604      14.273627067820756      10.323597229981353
   195   3      1.8344131597261679      12.179533485770051      9.9653819735800422
   196   4     0.21279838726001554       12.42131031759526      11.969587979761691
   197   1      2.0476573696977498      14.193109088081835      14.147973140507062
   198   3      2.1306058932048497      14.024172946932127      12.086190592239445
   199   3   -0.082600615340493816      14.139342056552568      14.068864651994016
   200   3      1.8436485271408201      12.090990692535083      14.311805822286843
   201   4   -0.040473958709352775      12.461784237657049      16.057480190652214
   202   2      2.0138807342176159      14.193386907410316      18.096313889739761
   203   3      1.9144540472041733      14.099353336257341      16.232893500990269
   204   3    0.046810157563130957      14.226762971846281      18.425786403363553
   205   3      1.9242074592836329       12.22389064898775      18.410342128308574
   206   4   -0.083207943520131958      12.237181538228262      19.913213362793641
   207   2      2.0849064009951963      14.057433779110394      22.242556966661795
   208   3      2.0545457878483959      14.260245106029016       20.36326830170475
   209   3    0.028678244960205018       14.23606862344092      22.347590055820362
   210   3      2.0248716396906583      12.127751479896464      22.262044917409014
   211   4    -0.17665100049384277      12.310202537132648      24.322953477780356
   212   2      1.9769007097628648      14.299368334537373       26.31421265688973
   213   3      2.0013443409163396      13.958034879665147      24.325453834715493
   214   3    0.068935011588692752      14.058970959055733      26.362668802549749
   215   3      2.0038368008524237      12.044817470730697      26.551492924581332
   216   4     -0.1983947056180923       12.24241990421239      28.175058304293074
   217   1      2.0402570141294447      14.097145984389355      30.348055293416714
   218   3      2.1744157982562755      14.258516531088262      28.280314358577364
   219   3   -0.023280003804849392      14.131271139601475      30.406935185716215
   220   3      2.2843054089471013      12.050110475183766      30.322042899161971
   221   4    -0.25620501728546874      12.118865704246534       32.38758786010245
   222   2      1.8575360953336235      14.167745725558389       34.43991303605047
   223   3      2.1994442413945778      14.108327818901971      32.479216421620762
   224   3    0.025024927735961038      14.196324695048466      34.306195898222818
   225   3        2.07994163297524      12.228852519907161      34.521549031664406
   226   4    -0.30624234637575698      12.052722846214857      36.535644681613462
   227   2      2.0166829804697501      14.147957884393843        38.4762402260126
   228   3      2.0063501513849582      14.407837163132514      36.391306168918497
   229   3    0.082429553892513663      14.410114904383525       38.46688533956614
   230   3      1.9664046851444261      12.257147882078437      38.287536037992147
   231   4    0.021493499025904455       12.08238746423431      40.733710999244252
   232   2      1.9785829205689853      14.170914747828476      42.620559532084727
   233   3      2.1462626397846303      14.248773400094176      40.359470612318653
   234   3    0.082359605348171383      14.200478065056172      42.295995826493503
   235   3      2.0887049580265056      12.250551753170223      42.281484982773748
   236   4     0.22561810515799136      11.887571089181234      44.741216177049026
   237   1      2.0605867153993778      14.155003636482714      46.624779111041789
   238   3       2.028742638708541      14.101462108143114      44.481011083052813
   239   3   -0.031149687768750611      14.427195973799371      46.577872536862472
   240   3      1.9473806140701728      12.105386929721778      46.622253183092326
   241   4    0.085464760286785749      16.322741942384919    -0.15315065589466959
   242   1       2.092758476493993      18.233604407234324        2.02661287013686
   243   3      2.1030821148681027      17.971370677372832   -0.059867969566990621
   244   3    0.013965309067957073      18.179146124982843      2.1551195508554786
   245   3      2.1575885138771143      16.143790826353598      2.1724894887798012
   246   4   -0.039396548595929545        16.2256671350376      4.3423162589299924
   247   2      2.2128396545965421      18.128318196776426      6.0243280435698914
   248   3      2.1279637512626834      18.379980443750785      4.1253175980612484
   249   3    0.071579510546239178       18.40954896268234      5.9743547283264311
   250   3      1.8801417429492875      16.232190456040058      5.9923350059042173
   251   4     0.36776474194907433      16.213276643867584      8.1571587088723341
   252   1       2.143616282074126      18.224771938883411      10.130839471045293
   253   3      1.8789552592402086      18.158486250868105      8.0580878180504829
   254   3   -0.005236033735510225       18.10962323879108      10.192872145264751
   255   3      2.0515973358001349      16.138159357828926      10.151505759227796
   256   4     0.34487802087216235      16.135129221750979      11.976160640330848
   257   2      2.1738097248975961      18.159629622495679      14.125096302321364
   258   3      1.9346209792431643      18.224208875523214      12.199829987527245
   259   3   0.0076176334725102718      18.282195947822583      14.212923915158701
   260   3      1.9249506957796181      16.243363589492521      14.201433234275887
   261   4     0.11601781827459609      16.488029907290134      15.876987683235365
   262   1      2.0570729319596306      18.228959789562321      18.217787185383536
   263   3      1.9034182706650615      18.259919362792274      16.148772449332014
   264   3   -0.080513713132138079      18.189007479393108      18.358571185841715
   265   3      2.0486292167791706      16.127862541477125      18.337909363169796
   266   4     0.11884009621011739      16.172136575560913      19.932579112802362
   267   2      2.0627371710677598      18.038487099226973      22.284104105703754
   268   3      1.9371640994266253      18.144803549771009      20.346966316592994
   269   3    0.066198251310324793      18.183409821594104      22.428629129371597
   270   3      2.0857006333646089      16.138690722555541      22.489593209889613
   271   4    -0.16404055073624133      16.186973478581642      24.165576891180727
   272   1      2.0064856657024461      18.212778262548497      26.304693972907312
   273   3      2.1133596154747387      18.468484284293229      24.245258821765823
   274   3   -0.051374706363861919      18.122983610407289      26.250021242181635
   275   3      2.1431655412010544      16.140506378527547      26.158723527208974
   276   4     0.21330329793685512      16.466875239583757      28.638275363130077
   277   1       2.104745961263268       18.21536503523172      30.400751143501903
   278   3       2.001256949201013      17.992886466924269      28.339531096672811
   279   3   -0.034752045051241055      18.135521249247791      30.328994817464025
   280   3       2.070527810744744      16.162494840658621      30.485623781774144
   281   4     0.27011240383498702      16.410249651167362       32.16161341047318
   282   2      2.1527880972944828       18.23822163508552      34.456448260295716
   283   3      1.9514250851762316      18.294507363535857       32.43944063807124
   284   3   -0.025413220731362055      18.164116183378241      34.300612344501261
   285   3       2.040838006648019      16.228045391226168      34.215414081226761
   286   4     -0.1618400441601868      16.151360171972776       36.70720444568353
   287   2      2.0487825383345344       18.22658491427007       38.55506311894748
   288   3      1.9117756776089636       18.14251405718192      36.357487328099488
   289   3    0.070145773680105161      18.180982396219839      38.362100379107773
   290   3      2.1594982432223508      16.245310035615063      38.396530449448818
   291   4    -0.01723161707420192      16.066060545984325      40.675226143655053
   292   1      2.0536091722083172      18.193357020006513      42.562946734502418
   293   3        2.10907557020438      18.217183778979063      40.421044977153905
   294   3   -0.024720874602422907      18.065701227735943      42.392069830848058
   295   3      2.0915026652428508      16.108108247833126      42.398833265242786
   296   4     0.26709188238482545      16.407291023096761      44.790983962965136
   297   2      2.1387272985669559      18.260926889917268      46.622244472755575
   298   3      1.8728891574944382      18.261966150684156      44.625278011718805
   299   3     0.08900519213952042      17.962294631982964      46.686694327386057
   300   3      2.1585637002052778       16.22544022813975      46.382365293729023
   301   4   0.0064223245479375149      20.321512140443446    -0.21688274469329438
   302   2      2.1060314957280983      22.147352366109711      2.1056865788561536
   303   3       1.983900046435827      22.284773749104673   -0.021825740068652975
   304   3   0.0080746388401994693      22.279396026876462      2.1061981765508113
   305   3      1.9857782604779106      20.281142699455046      1.9012673323830391
   306   4     0.30510085255433067        20.0527824493632      4.1900907744361691
   307   1      2.0559947189106689      22.300854266104832      6.0959753484336741
   308   3      2.1369468842247707       22.16798948830635      3.9934237682910636
   309   3   -0.016088793706498111      22.132174913257536      6.0507388725169262
   310   3      2.1556486555082954      20.206621754461409      6.2530652395763102
   311   4     0.33016999059878022      20.010790241925385      7.8723646278227077
   312   2      2.0024707869368683      22.138476310104103      10.153600291452245
   313   3      2.0890869542307264      22.378520100487911      8.1783456650470594
   314   3    0.056186437843768006        22.5630359849226      10.117191679538969
   315   3      1.8854276158823764       20.26964461168982      10.157680661962099
   316   4       0.303990119678542       20.02259030295393      12.298604170885929
   317   1      2.0512490554593654      22.277615504810363      14.224385501588213
   318   3      2.0060613906786302      22.442336312230214      12.120050978203068
   319   3    -0.04744286488699629      22.365330713686838      14.226196984838232
   320   3      1.9058194735919376      20.197961333676343       14.11608028878195
   321   4       0.280534310077169      20.106963982390806      15.949230174462963
   322   2      2.1174658342654746      22.191775687750734      18.200162824448114
   323   3      1.8916543286049772      22.077621123649514      16.302477901852576
   324   3   -0.068043580582342875      22.389921351133957      18.344892556965483
   325   3      1.8818945335776864      20.312955475587945      18.519012090919816
   326   4     0.23679955180615536      19.992021087385311       20.28242758115957
   327   1      2.0292640970506417      22.262443920791398      22.264435459945719
   328   3      2.0105449222801757      22.594575877316522      20.197703233785976
   329   3   -0.062979309712483542      22.497237471296277      22.342358413791221
   330   3      1.9085590386575977      20.219752262630458      22.080315345410426
   331   4     0.20137121926161877      20.057523984301554      24.029795877601934
   332   2      2.0925082710630676      22.143558852694159      26.328641567280084
   333   3      1.9676652999142581      22.252607958280215      24.359244672294778
   334   3   -0.029420721407232654      22.447656392334114      26.289794463200455
   335   3      1.9074812489105213      20.289578723782387      26.528099050564915
   336   4     0.13072207916146023      20.013645726210815      28.664815758227139
   337   1      2.0373510195672653      22.249404130155177      30.375549127253148
   338   3       1.992750064868793      22.529205409795491       28.26889166091334
   339   3    -0.09352457490069549      22.240920918695402      30.152975039245298
   340   3      1.9458277621583331       20.21900054401496      30.146626137086358
   341   4     0.37564848735769674      20.115139984724866      32.202472855859476
   342   2      2.0947043110352732      22.291741846429005      34.313603459824897
   343   3      1.9370073154309555      22.023007980200045      32.425315715327081
   344   3   -0.049129296362395485      22.382651937901716      34.392138623025467
   345   3      1.8748916637443214      20.194768841275899      34.456964438784048
   346   4   -0.079435077520173272      20.076873700098293      36.725593440735153
   347   2      2.0368123447576454      22.277739042620919      38.303975204540343
   348   3      1.9988967441270427      22.311066226653445      36.399731955342531
   349   3  -0.0060236742819848041      22.253617730257666      38.356247858204313
   350   3      1.9065735734282605      20.245378381865549      38.374650896854043
   351   4  -0.0016906066653607718      20.085487430495011      40.679646819620352
   352   2      2.0121867794933821      22.224793659165719      42.329877592587692
   353   3      1.9266818476219518      22.227376524031982       40.45429884612691
   354   3     0.10900944274291127      22.329524997628827      42.746887897242573
   355   3      1.8268444175211096      20.264032527338024      42.512125950642613
   356   4     0.24904365832626646      20.332598194222655      44.425910818928124
   357   2      2.0801503798191585      22.352747438634893      46.620636166134439
   358   3      2.0690113072528931      22.029726543671242      44.660551579994063
   359   3    0.052356273467675171      22.206206309195753      46.647553389327797