(written by ASE)

8640 atoms
4 atom types

0.0      48.599999999999994  xlo xhi
0.0      48.599999999999994  ylo yhi
0.0      48.599999999999994  zlo zhi

Atoms # atomic

     1   4      0.1671825837622134    -0.15698125015302342     0.26276377896458053
     2   1      2.0267422359839604      2.0074746726058219      2.0971991872500202
     3   3      2.1478508119205357      1.9841619513730762    -0.12892096194856101
     4   3  -0.0062357180434161625      1.9009173289665824      1.8117824054546108
     5   3      2.2375605051424854   -0.069629775305574723      2.0259325499808356
     6   4   -0.025508752615191855    -0.18341054147741401      4.3367224797449992
     7   2      1.9110172235231866        1.99007610964634       6.122849592535192
     8   3      2.1723885812442139      2.1390266825531459      4.1498206205921484
     9   3    0.050075159223316346      2.0918889038701369      6.0412083180333722
    10   3      2.0290430139521924    0.036487324589886211      5.8847378699750141
    11   4   -0.021035749647953524    -0.38191787985624409      8.1143010245140115
    12   2      1.9518261508128654      2.0349359555267617      10.172136257994294
    13   3      2.1692688404762004      1.8652093509080421      8.0799866384101371
    14   3    0.051601646101904618      1.7939704854112097      10.084995189247637
    15   3      2.3569105710515261    0.085164746244424563      10.225654758345739
    16   4     0.10203929191454733    -0.27969010843135822       12.21781276021302
    17   2      2.0620527468615832      2.0440656936252184      14.349302754649583
    18   3      2.0463854230359386      2.1304014975052286      12.067581725088722
    19   3   -0.058122911700281818      2.0142865356724009      14.158250781271276
    20   3      2.0001061889240468    0.095566727175453212      13.992056158594307
    21   4    0.041927092223475425    -0.34693854147687903      16.225127049101619
    22   1      1.9786075857287715      2.0584083146533358      18.276764592997736
    23   3      2.0427607994228096       1.988295555437974      16.209790403584034
    24   3   -0.079878475024686521      1.9263961419747055       18.45173716740306
    25   3      2.2621424096843707   0.0018242723977267201      18.311116164649828
    26   4    -0.11546097775806806   0.0010419956360430099      19.995920404835626
    27   2      1.8720715715260554       2.054851544015992       22.25669897619639
    28   3      2.2242663856624785      2.0114038010927979      20.364942077416153
    29   3    0.018701107119285097      2.2352005483574762      22.241676703335493
    30   3      2.0592832241839463     0.14691922917882833      22.501167109672672
    31   4    -0.08062436101526059    -0.33291599488689844      24.365679284214167
    32   2      1.9154552585009224      2.0085368130838748      26.254542152993917
    33   3      1.9801111945215635      2.2398974702325813      24.367312651569662
    34   3    0.025840106163239784      2.0812291161756571      26.433698043503405
    35   3      2.0881936081010624     0.13306157867501714      26.249430677879268
    36   4    -0.14788531047851045    -0.36045063074385458      28.267091478409242
    37   2      1.9339138210673914      2.0083461275281596      30.237972697570402
    38   3      2.1272311509305668      2.0294203137958386      28.333861209941922
    39   3     0.05733741016427614      2.1911466646202942      30.394784417796828
    40   3      2.0138054108494243     0.10060243419207368       30.48133762460612
    41   4    -0.35439525279000406   -0.042438152192386135      32.477889774094848
    42   2      1.9586282149485632      1.9313550409130451      34.411588487612569
    43   3      2.0427013237004696       2.166734460016702      32.487173949572238
    44   3    0.078482854687147843      1.9156292095513223      34.445135860136631
    45   3      2.2567894351849733    0.064298139299223178      34.427986722760387
    46   4    -0.34550727142410359    -0.20797297285304209      36.325173356098752
    47   2      1.9567369585104883      1.9171741798121475      38.414744059227274
    48   3      2.0784854608844308        2.10604635746847      36.445796685004879
    49   3    0.073557805093003983      2.1598209286802605      38.511121468655652
    50   3      2.0536457522661644    0.065838604930939792      38.496563426973907
    51   4   -0.073123091992889439     -0.2681222157592249      40.543657448246968
    52   2      2.0559205348112042      2.0072404918266162      42.495483362811115
    53   3      2.0967808013736922      2.1803961486623553      40.459753583847267
    54   3    0.035260744307692632      2.1501193997432106      42.379881544518611
    55   3      2.0621520171994443     0.14647594101087741      42.508356355078263
    56   4    0.040317853078574002    -0.34246538574171176      44.607256901027839
    57   2      2.0405563201621804      1.9090694737962042      46.552638610073714
    58   3      1.9440998353345142      2.2648151059505737      44.443966636218732
    59   3     0.10591334979414806      2.2186353844210842      46.541941116389054
    60   3      2.0066969939358796     0.06071495571980761      46.341785130414543
    61   4   -0.040676835380889162      3.6496340834201493      0.1096872610399581
    62   2      2.1125938403188362      5.9861310509068453      2.0838211477927024
    63   3      1.9843241019052198      6.2813141280038858     -0.1034196030134908
    64   3    0.039620682382885665      6.2521394385145461       1.976453076564666
    65   3      2.0074716204580891      4.0965101791207843      1.7685134952130113
    66   4    -0.19608344074005976      3.9420152401955209      4.3318144357535076
    67   1      2.0072147978549344      6.0508602121026049      6.1128130077602663
    68   3      2.1377607694561185      5.9466935229166378      3.9842522264233904
    69   3   -0.047768330078601672      6.0200970427924512      5.9376911759092232
    70   3      2.2230925039331781      3.9546122050882415      6.1701633508588607
    71   4    -0.17067772974608283      4.2487635217493089      8.2816519613041972
    72   2      1.9325397791594956      6.1901200883846874      10.146160780338761
    73   3      2.1630202504016891       6.108690902785388      8.1787043468400586
    74   3    0.043095005956328342      6.1490293143326342      10.059238613999653
    75   3      1.8629625558299419      3.9807220778456194      9.8988533063873057
    76   4   0.0082544558386646125      4.2764771182745029      12.254756292552935
    77   1      1.9848089662656483      6.0749607152867382      14.193679778413482
    78   3      1.9997863833204272      5.7936609564688881      12.050936680262245
    79   3   -0.099218117464859396      5.9768656637230055      14.146376514334021
    80   3      1.9630918370061878      3.9842338356932538       14.16295710107045
    81   4    -0.25140694179705264       4.326840567107892       16.18124643364402
    82   2      1.8431602906759748      6.0945558691799526      18.283482949155246
    83   3      2.1185315292346512      6.1077242816036463      16.287061607409814
    84   3  -0.0083327801310484288      6.1788171309743296      18.282305645701168
    85   3      2.0188964500310322      4.1353584499913811      18.254161003888214
    86   4     -0.3358951520667291      3.9375468041741342      20.104310074527611
    87   1      2.0041668401150203      6.0776358329256901      22.254629500645276
    88   3      2.2396317299539237      6.1153459357067996      20.197070134525745
    89   3   -0.041310278448455973      6.1015153459127278      22.314968387393737
    90   3      2.3186575609256415      3.9935803127227469      22.277251737066539
    91   4    -0.38171017368777005      3.9627623472475775      24.255627248081485
    92   2       1.937566968568738      6.0646477196861763      26.316833854512055
    93   3      2.1173942263587464      6.0434003044582543      24.397676201780978
    94   3      0.0371960396585444      6.2470928161255097      26.437561973548615
    95   3      1.9814964452531683       4.090525246266167      26.519191979637789
    96   4    -0.37136080325239029      4.0093453972076185      28.198347701402064
    97   1       1.946946148689068      6.1102617872930756      30.391502319185363
    98   3      2.0986057755011833      6.2172749993114502      28.347530524617135
    99   3    -0.10940370790687373       6.273777804681556      30.427335796376596
   100   3      2.2325324899349099      4.0287943260688932      30.355628130398657
   101   4     -0.3122701516804916      3.8374096810304987      32.332784149898352
   102   2      2.0083530595206742      5.9399488380971972      34.409286901686428
   103   3      2.1191074676807342      6.1275783064857476      32.509064618353911
   104   3    0.091547142866157574      6.3314149546709704      34.413716422603756
   105   3      1.9318719289444881      4.0758788060659441      34.548176969471314
   106   4    -0.37828561031631081      3.9376032055079566      36.348423262018066
   107   2      1.9464809693146989      6.0114799799164054      38.462328949538573
   108   3      1.9635654950403996      6.3269376821309891      36.486153966436198
   109   3    0.043883708469840133      6.2894176465313363      38.564431018110866
   110   3       1.994838743507179      4.1589069827422227      38.407703434799153
   111   4     -0.1769130806070017      3.8241449078874274      40.479477114850951
   112   2      1.9924010589012731      6.0408850918140766      42.554726752139935
   113   3      2.1808105761842129      6.2679687658492798       40.39107143898098
   114   3      0.1314556516979421      6.2824465691049598      42.288806468700564
   115   3      2.0413518716143679      4.1859328450073692       42.34983860303597
   116   4   -0.084534545446756357      3.9224082591747504      44.780715596204935
   117   2      2.0630356114544259      6.0561490041150297      46.607175934229858
   118   3      2.0722378257383984        6.11072576737992      44.428800417263787
   119   3    0.073362304555260938      6.1521733521145805      46.375023608383195
   120   3      2.0813482276295976      4.1422575703353939      46.541833977407499
   121   4     0.24339211318708173      8.1716589278935263     0.24376571068709216
   122   1       1.986452602753108      10.148091007083996      2.0968780398174789
   123   3      1.9678288813078231      10.001303922830767    0.052625686153330707
   124   3   -0.075084214020073564      10.240483707412466      2.0962077244883326
   125   3      2.1320348965997309       8.053962056791141       2.082152185531724
   126   4   -0.061929121528841141      7.9227700244459323      4.4305570763983821
   127   2      2.0098600438017944      10.184864638650458      6.0554935219038564
   128   3      2.2853815397692303      10.298343407734951      4.1242276255552932
   129   3    0.051406506635322875      10.109570665774886      5.9074623993282938
   130   3       2.072296490452131      8.1250547854553226       5.858123895693975
   131   4   0.0029280579208020891       8.301184724317034      8.0939017315963184
   132   1      2.0261407223822627      10.138441519758738      10.151655062155571
   133   3      1.8473842485209706      9.8195663817526118       8.053213888183377
   134   3    -0.10274232879923846      9.8026233689465645      10.110653926293249
   135   3      2.1643304708518136      8.0372059615680076      10.297342233992602
   136   4     0.21952860025982707      8.3879213690723766      12.211866158150324
   137   2      2.1095070658884238      10.224355460456945      14.174618630721158
   138   3      1.7761311377388063      10.190426221363708      12.223152892165087
   139   3    -0.11551422457189688      9.9335326661121801      14.266767913020736
   140   3       2.097825763403149      8.1295181957393527      13.997709614479596
   141   4   0.0035206067386495858      8.4283956957474633      16.258410703669732
   142   1       2.019743217939344      10.175716224973948      18.208389990583804
   143   3      1.9765510198029637       9.879454885861831       16.12739134562116
   144   3   -0.065459470899827607      9.9308137201678282      18.196211409826365
   145   3      2.2435550024872621      8.0417584229752546      18.243263353846846
   146   4    -0.28269547796165628      8.3269894164825704      20.099544710567738
   147   2      1.9566589306950581      10.089058464477329      22.213380196802785
   148   3      2.0727910487704944      9.9992368594412024      20.336657717973843
   149   3    0.091459408818539631      10.038616207741956      22.415293292497687
   150   3      2.1551725552054495      8.1649621418982559      22.445931404725535
   151   4    -0.18837697282145374      8.0889943492593055      24.132799771448386
   152   2      1.9632500856030541        10.1373054047253      26.277647214895136
   153   3      2.0920835177817896      10.166555254965219      24.396523289223765
   154   3    0.067288470085269628      9.9935160687406306      26.433159348412079
   155   3      2.1761824590822081      8.1135803259083694      26.320956161130152
   156   4    -0.17036114434689567      7.9345779999680213      28.292649434136194
   157   2      1.8910117063630136       10.12088894756325      30.299208230334845
   158   3      2.1198263455794066      9.9329659711023108      28.412040409227018
   159   3    0.041423822193076658      10.210896782305516      30.398207586283277
   160   3       2.078572149483958      8.2248209983079814       30.69427169249381
   161   4   -0.086692251844556215      7.8398592017538977      32.359164967260419
   162   2      1.9200491960641302      10.143472676879879      34.405512831165609
   163   3      2.0346270275741283      10.348666495387912      32.474059939606903
   164   3    0.026607139462725367      10.206572688055896      34.506397319871006
   165   3      2.1454388036496224      8.2491374148489189       34.36972324209173
   166   4    -0.28546193035117323      7.8815863107752788      36.378569198633087
   167   2      1.9707205112034021      10.055950201427283      38.435258880063266
   168   3      2.2175642164405023      10.176336228059395      36.398262273406218
   169   3     0.08760244092400836      10.171819721649829      38.284248531790631
   170   3      2.1655087694604389      8.1904824917386989      38.463333332373701
   171   4    -0.12295084760893865      7.9746218117695129      40.560826761982462
   172   2      2.1212816324860362      10.112830809390783      42.485082143856708
   173   3      2.0266160394083461      10.307120565949475      40.386538136252668
   174   3     0.03870684736190818      10.158403675536945      42.389890314200038
   175   3      2.1190293806281333      8.2217541308660493      42.335680495477895
   176   4    0.029243946674387598      8.2209775957606457       44.95867159662685
   177   1      2.0618174684981527      10.094424869393064      46.612939696782099
   178   3       2.036442157537758      10.242910148447972      44.377112278381716
   179   3    0.012039546809044484      10.163581160050972      46.464397995806074
   180   3      2.0537888288074866      8.0512167810430366      46.347800307898787
   181   4     0.11086401039081263      11.727359940507499     -0.1538737841866657
   182   2      1.8434995936456631      14.209864471911526       2.032830910056703
   183   3       2.090328278836656      14.317525685578717    0.099271459127052916
   184   3   -0.049554011120749794      14.246341986610121       2.161948109306568
   185   3      2.1992910579025282      12.243947202057505       1.987347016047857
   186   4     -0.2029924969870045      11.856573502939277      4.0046112719029185
   187   1      2.0252711535809995      14.156649747244245      6.0631025345728169
   188   3      2.2148474469727657      14.100975794261858      4.0079120256182321
   189   3   -0.042777405483735972      14.132233971918522      5.9312728314379122
   190   3      2.0349040688015778      12.090155627335619      6.3993015391997519
   191   4     0.26973929452119416      12.319584406063077      8.1607808170492326
   192   2      2.1787065307120712      14.175914047908353      10.077758143121098
   193   3      1.7992507648272362      14.245937377570129      8.1413065825420539
   194   3    0.061982106521070682      14.276835565041655      10.329577597658306
   195   3      1.8369431687241478      12.180061589649336      9.9640016187640015
   196   4      0.2128813861910249      12.422147579774521      11.968116983336298
   197   1      2.0467553009011921      14.191293290569329       14.14916195450002
   198   3      2.1316925395887654      14.022445510103923      12.087502276238883
   199   3   -0.082304974548422963      14.137474830956551      14.069143772035728
   200   3      1.8428672604822138       12.08951176730872      14.309338647129549
   201   4   -0.038367536950371296      12.459740393754254      16.057902835730388
   202   2      2.0155236298193526       14.19528121064987        18.0967557628863
   203   3      1.9103057598854756      14.095755865483348      16.232770734424395
   204   3    0.045205502519443753      14.220539710473654      18.428062455079075
   205   3      1.9269414635625344      12.223790141335261      18.414513472214878
   206   4   -0.083250160268503209      12.240542311085047      19.910950363097712
   207   2      2.0869559477601998      14.060214688106818      22.240491776311451
   208   3      2.0576553069116041      14.269592779410186      20.360715294131744
   209   3    0.027585524685972189      14.237006811006022       22.33690948507801
   210   3      2.0242156909101667      12.129636073036403      22.254208227782168
   211   4    -0.18206645586764847      12.314597829944427      24.322173964393617
   212   2      1.9748757442309199      14.297257623057803      26.311873020489138
   213   3      1.9942452837333446      13.955690140304378      24.323137056196497
   214   3    0.068070317500914926      14.050874332100193      26.368632320425085
   215   3      2.0080185004962448      12.043502499678599      26.548796187949684
   216   4    -0.19897822926386943      12.244571206103526      28.175503869392287
   217   1       2.039497224799748      14.092906209336844      30.346738979162623
   218   3      2.1786000828191288      14.254738172979364      28.278813198114253
   219   3   -0.023139462790528902      14.124491842208039      30.402611354354391
   220   3      2.2798870634769872      12.044755410682571      30.333649860083796
   221   4    -0.25530879638752529      12.117850666842685      32.382941449646403
   222   2      1.8521730228097828      14.171159722513151      34.439613921097134
   223   3      2.2003766778759979      14.091847106554734       32.48014562001724
   224   3    0.020544191671002677      14.177152237115859      34.308055196300757
   225   3      2.0853167318738453      12.223440543420873       34.54189460350247
   226   4     -0.3221400252643864      12.081147063863378      36.514761346865335
   227   2      2.0223913523304375      14.141389457132057      38.483662102752611
   228   3      2.0066310212611898       14.41612237481044        36.3874346677472
   229   3    0.084721640600908685      14.399324619741094       38.46509904030637
   230   3      1.9656401543605926      12.253818107735171      38.261077181804502
   231   4    -0.10570165923689645      12.169833225037499      40.615987978204231
   232   2      1.9817926300971758       14.15024177231443      42.605429502516039
   233   3      2.1624173067221095      14.190549020506827      40.364103050456535
   234   3    0.089795932974294154      14.181921091360554      42.276978889802557
   235   3      2.0745007881839035      12.188426354922044      42.358625205066332
   236   4     0.22940102607097418      11.943053560693656      44.936427690955362
   237   1      2.0525694989502532      14.174556686927753      46.621705096193594
   238   3      2.0320849132343639      14.205494443833256      44.461326722831394
   239   3   -0.038339848496768095      14.439148812847739       46.57950545410943
   240   3      1.9790893895780957      12.162585461516374      46.553654504366669
   241   4     0.10173634802887839      16.334977095329911    -0.14116170605982378
   242   1      2.0924545192330504      18.232687894561753       2.028833120361516
   243   3      2.0947706837753595       17.99093649405668   -0.055472666915277399
   244   3    0.012388635584775168      18.195707959426823      2.1591753676625691
   245   3      2.1164855547486017      16.153323500043342      2.1836319347217934
   246   4   -0.027416276366824064       16.21053637693127      4.3208797997311397
   247   2      2.2103554163326438      18.129996906376824       6.026907823314299
   248   3       2.126055269259886      18.387710069062017        4.12911766671027
   249   3    0.072761064494981015      18.418359855624466      5.9800365180972079
   250   3      1.8750986614419372      16.233934522933509      5.9921087768353027
   251   4     0.36147807145072963      16.212548652454572      8.1489160449353477
   252   1      2.1428674384526447      18.224507556781141      10.131438437463908
   253   3      1.8788802099727333      18.156234217111372      8.0603174657037435
   254   3  -0.0037061926900973162      18.111980137369383      10.196497860505156
   255   3      2.0562197828438809      16.140144564981647      10.156661634399629
   256   4     0.34442500346712107      16.134434590315848      11.976030623466858
   257   2      2.1759696086224687      18.160105632739377      14.125245087128697
   258   3      1.9360863535523769      18.223960356363378      12.201244299082498
   259   3   0.0084964388411276851      18.284674482997708      14.214977077449085
   260   3       1.925644881912755      16.242817653964277      14.205417277026843
   261   4     0.12969728978292613      16.483530599445839      15.881636309478564
   262   1      2.0603007012614603      18.230181775239224      18.219122968157301
   263   3      1.9052792163013448      18.259687398860923      16.149236863667976
   264   3   -0.081758699117162242      18.194270736119485      18.349281499910663
   265   3      2.0324090682347147      16.128963148051273      18.324386744388828
   266   4     0.12940482230223999      16.172988646570712      19.935502442231897
   267   2      2.0698357677732853      18.042199914773555      22.281110164146909
   268   3      1.9201184130528872      18.131357440441807      20.346090669097411
   269   3    0.065800937908419746       18.18164554740099      22.438207088571442
   270   3      2.0820366264565227      16.139994077859434       22.49351919926406
   271   4    -0.15818503637493908      16.196587488255208      24.152217757871924
   272   1      2.0058491366237767      18.211156868457916      26.304661181772524
   273   3       2.117568976048231      18.467415693030148      24.244649373420653
   274   3   -0.051077460652742303      18.118255361344918      26.238149540438577
   275   3      2.1402446065193121      16.138272992835667      26.157441058927947
   276   4     0.21020752019712327      16.465242027014167      28.636393359163868
   277   1      2.1036986014260148       18.21059066475248      30.400976145209285
   278   3      2.0006229157855886      17.989574384192075      28.338822986265892
   279   3   -0.034168870690878733      18.130964971499552      30.328981331648706
   280   3      2.0723676213124338      16.157418972795675      30.488194379909118
   281   4     0.26432283428537279      16.413325821727096       32.16356546273478
   282   2      2.1531670875321653      18.244491630920766       34.45395340803676
   283   3      1.9495277934320623      18.288574057153525       32.44078348859216
   284   3   -0.024269594519079851      18.153436067349546      34.300913712922608
   285   3       2.038000032901055      16.214750371197169      34.202081509466005
   286   4    -0.11142015893715206        16.1931294379885       36.72878659596455
   287   2      2.0567598970858159      18.239669027382252      38.557015395809351
   288   3      1.9055930542235648      18.100300336721105      36.356004685930266
   289   3    0.071305682654129648      18.165277481112945       38.35584777298665
   290   3      2.1620750257382655      16.235687528663707      38.413288369388539
   291   4  -0.0011321203041580021      16.094562915116242      40.694650297250178
   292   1      2.0512720625108276      18.183842523314986      42.559229803987378
   293   3      2.1100346333207769      18.221981906180854       40.41904562793021
   294   3   -0.028245942512395022      18.069448327509264      42.375250496932502
   295   3       2.062958691144384       16.08738836944238       42.33446379335593
   296   4     0.26569730394083291      16.396769578544284      44.802161463148579
   297   2      2.1489816134364386      18.257941714762918      46.630892393201698
   298   3      1.8711572613728533      18.250962982313062      44.622934242028045
   299   3    0.090053560855366047      17.965419910828174      46.691484924719752
   300   3      2.1621822369569967      16.234780327811201      46.404367086368929
   301   4   0.0089560939158923065      20.312132157548042    -0.21237918833487635
   302   2      2.1059988820723943      22.148496904096881      2.1095388521631393
   303   3      1.9897522274701223      22.281216975271388   -0.025617617489795776
   304   3   0.0094794579589390672      22.280464617877186      2.1039210664185046
   305   3      1.9885176175565618       20.28311973259391      1.9029425250270766
   306   4     0.29353924962800076      20.045110617708264      4.1854493430534667
   307   1      2.0559328852995473      22.300802102983933      6.0985220913076228
   308   3      2.1404489935313329      22.172175505063347      3.9949973170711908
   309   3   -0.015291481192552284      22.135692007646341      6.0522014078904114
   310   3      2.1613304149325043      20.208997420763335      6.2607297175120458
   311   4     0.32669711528920464       20.00975801455424      7.8701423215694959
   312   2      2.0017918561717964      22.137247160705545      10.154064071304255
   313   3      2.0903479279324664      22.381279138615437      8.1812411970182168
   314   3    0.057232525587934652      22.564524642925541      10.119207049301007
   315   3      1.8886215279389182      20.269884443646376      10.161308391566562
   316   4     0.30111993177760799      20.018734832464123      12.299973792858909
   317   1      2.0504054187876779      22.278500015459947      14.224547606547066
   318   3      2.0088567012241265      22.445164828724504      12.121485454801215
   319   3   -0.047285692871431154      22.365339793539572      14.226617357849008
   320   3      1.9088903565241293      20.197983466902112      14.117063036535203
   321   4     0.28346139149118849      20.105628270858393      15.950130973669285
   322   2      2.1193364945826811      22.190931408505303      18.201830229391909
   323   3      1.8930359038453382      22.077429622433822       16.30240851522143
   324   3   -0.068648832860262216      22.386839314266286      18.344247620745346
   325   3      1.8840817281003268      20.312305225814789      18.518472586297765
   326   4     0.24455585429689705      19.995744641377467      20.283315500064077
   327   1      2.0297567476317582      22.260403732546948      22.266762313017445
   328   3      2.0115408467324145      22.592848135326022      20.197530973392549
   329   3   -0.062575528003537204      22.500152851837942      22.335068013818042
   330   3      1.9110791914381922      20.216066273517164      22.076221850230571
   331   4     0.20060772535782329      20.047421197230985      24.035368059910169
   332   2      2.0929097823150347      22.140293725537198       26.32934009350743
   333   3      1.9664394426937326      22.256645428851495      24.359816220520326
   334   3   -0.028475629223310282      22.452040370940281      26.294833354149873
   335   3      1.9027033850146846      20.287255851790388      26.519841598816647
   336   4     0.12765419760093663      20.012615783834722      28.667478892348875
   337   1      2.0405890707147076      22.247381276174167      30.379450806368222
   338   3      1.9983995059257826      22.521309723470939      28.271021276910048
   339   3    -0.09170528186871639      22.238388275849253      30.156185198690647
   340   3      1.9443171774769412      20.215334081922059      30.151654277446216
   341   4     0.37734791958302316      20.117284030069197      32.201717177982722
   342   2      2.0937713438559586      22.303201125714043      34.320345401971046
   343   3      1.9481071677555071      22.007705203682303      32.432421761018865
   344   3   -0.046312526117378336      22.371484185128658      34.389114263486256
   345   3      1.8808283402343067      20.182550936060228      34.470635443218079
   346   4   -0.082755933942504162      20.089062218162095      36.732530692722399
   347   2      2.0363859539106359      22.287126634410882      38.307247664532518
   348   3      1.9943413096249478      22.305173727326896       36.40068353735348
   349   3  -0.0041668452494644358      22.235135518045841      38.358798235715206
   350   3      1.9110618309954841      20.234565800423486      38.361570882847325
   351   4   0.0057986617798222433      20.084188396054156      40.701254777708485
   352   2      2.0103849958134532      22.225242668965986      42.330771088658629
   353   3      1.9363841153599572       22.21357218679271      40.451695369653557
   354   3      0.1076346205250694      22.334157759013689      42.726625028819633
   355   3      1.8261445505670473      20.258855738635585      42.513773697826771
   356   4     0.26956480146050626      20.309848497865161      44.437363497399907
   357   2      2.0796305470976972      22.350691831976832      46.619875972724522
   358   3      2.0652922264160551      22.031876441293218      44.653393715799773
   359   3    0.052470857823693109       22.21202392172825      46.644143188308441