(written by ASE)

8640 atoms
4 atom types

0.0      48.599999999999994  xlo xhi
0.0      48.599999999999994  ylo yhi
0.0      48.599999999999994  zlo zhi

Atoms # atomic

     1   4     0.15487529586026844    -0.16927156868005958     0.25165293626770807
     2   1      2.0253911161269995      2.0049115452948345      2.0972690560992331
     3   3      2.1587446795681133      1.9942587140463386    -0.12753808346813614
     4   3  -0.0057163900271802841      1.9003679752337221      1.8108128450179914
     5   3      2.2497961913370945   -0.070700134153090385      2.0301519832503652
     6   4   -0.031081585167554916    -0.18466810562012473      4.3332109670403254
     7   2      1.9096554336520977      1.9885426437686493      6.1229807654197428
     8   3      2.1741645961525462      2.1353346143280305      4.1501029653474983
     9   3    0.049368334138808978      2.0917260825168857      6.0397432167505736
    10   3      2.0298465549047231    0.036059424290060517      5.8866519112146287
    11   4   -0.020388124058546956    -0.38304334476616297      8.1140390062848375
    12   2      1.9524526495887888      2.0345126925518446      10.172905316128244
    13   3      2.1674767332038281      1.8661990580292205      8.0797732158191362
    14   3    0.051705800003727452      1.7945973963371245      10.086229901648874
    15   3      2.3568634147226928    0.084949694819929991       10.22449958055498
    16   4     0.10088485567032558    -0.27969197833743703      12.218779525807525
    17   2      2.0618973813533321      2.0438819085789524      14.350388855820253
    18   3      2.0480092450902028      2.1291419219940528      12.067397354592405
    19   3   -0.058205593144307226      2.0124595081884262      14.155870488382616
    20   3      1.9989135512853531    0.095163758978622059      13.990948659552943
    21   4    0.043902201526538003    -0.34612591222528105      16.225370027574829
    22   1      1.9786883620313158      2.0592454259700754      18.275530826687319
    23   3      2.0388516590053478      1.9850240013845784      16.209164150272347
    24   3   -0.079018370609988467      1.9245179881350423      18.449539497995559
    25   3      2.2626416444786321  0.00078459202736606956      18.308317270590475
    26   4    -0.11195778659393379  0.00014220101780564916      19.997865278070311
    27   2      1.8720072563387982      2.0547023733784688       22.25455808944816
    28   3      2.2226119967336406      2.0066241803352951      20.363471470003638
    29   3     0.01844671673686259       2.234128724804016      22.241504111088169
    30   3       2.056992923314799     0.14562839235089259      22.503476446051128
    31   4   -0.078297897675850492    -0.33143688244434805      24.364313886349748
    32   2      1.9142243746418319      2.0107032913962413      26.253993588987221
    33   3      1.9779812272348019      2.2357799311422935      24.368012126646146
    34   3    0.024459720960402252      2.0781770800910597      26.434419834560895
    35   3       2.089071124939669      0.1324595851258481      26.252205555139735
    36   4    -0.14662397558928872    -0.35797707114428473      28.264962191357188
    37   2      1.9319067550458653      2.0096942521831549      30.238551015866133
    38   3        2.12806769240962      2.0269167681586753      28.335430211987497
    39   3    0.056417391790375186      2.1896007635730053      30.396057247068139
    40   3      2.0133497980886994     0.10053184831285351      30.482368860326527
    41   4    -0.35289329518344453   -0.041276120466942165      32.477124550426609
    42   2      1.9576363239643231      1.9331423247190411      34.414740497825321
    43   3      2.0401950994081748       2.165667556043585      32.488587227665398
    44   3    0.077354005201598686       1.918542270428282       34.45006809636623
    45   3      2.2538932160762508    0.065396059112207708      34.429969563502524
    46   4    -0.34280635437398083    -0.21112495377680168      36.323887807685679
    47   2      1.9587875409708275      1.9176836269789035      38.418552949067568
    48   3      2.0857739075088961      2.1093503502313609      36.444589662289331
    49   3    0.074430496667834037      2.1628834671974442      38.504120145335236
    50   3      2.0510719039276784    0.065287219580884126      38.494278574179511
    51   4   -0.065462627075045091    -0.27150566983596092      40.543898531754081
    52   2        2.06089030234175      2.0037606443559604      42.498566567587645
    53   3      2.0970603093813049      2.1820603745501175      40.454566573172556
    54   3    0.037007473504575165      2.1436654129373065      42.369161330300479
    55   3      2.0674789431505158     0.14279293603984425      42.495224130285642
    56   4    0.048544780647498037    -0.33343031381245564       44.61748444232942
    57   2       2.047115837522433      1.9110088995186854      46.559147014579175
    58   3      1.9377624206703452       2.248990817064247       44.43801244252586
    59   3     0.11013173024452451      2.2213671780048787      46.542516800499243
    60   3      1.9988536299958393    0.059304806154370719      46.350364065208559
    61   4   -0.041870792900518039      3.6487440494184473     0.10915779622292401
    62   2      2.1129229455658773      5.9875608548160759      2.0924331829769098
    63   3      1.9937562385221521      6.2585421220688175     -0.1075104896308771
    64   3    0.043416114155450068      6.2549905945556201       1.970029182850354
    65   3      2.0064137532405035      4.0969498362386716      1.7745004837182086
    66   4    -0.19502118213044628      3.9354711094811705      4.3266438955954758
    67   1      2.0079288744832713      6.0517344346481661      6.1125863675841581
    68   3      2.1338908432249881      5.9603473771128659      3.9857423397580591
    69   3   -0.047003665388275315      6.0227682899483428       5.935141405181307
    70   3       2.220896767467289      3.9548645895436363       6.167577398109449
    71   4    -0.17175819323219141        4.24351037399967       8.283762093559389
    72   2      1.9315834796064499      6.1894532864304583      10.146567238740342
    73   3      2.1631292038250263       6.110023711465753      8.1785842314027644
    74   3    0.042772636234433954      6.1490161273386148      10.057768317338541
    75   3      1.8626750268662042      3.9809972067381092      9.8997634031475155
    76   4   0.0094941580475990019      4.2759749005187393      12.257354012220851
    77   1      1.9857757616667222      6.0753814403833424      14.194938840043923
    78   3      1.9985701186348566      5.7944551901860413      12.051531871437845
    79   3   -0.098657124596507426        5.97610173842574      14.149343390538863
    80   3       1.962708458862704      3.9834713900279248      14.161473540713661
    81   4    -0.24716854251410925      4.3277065064041489      16.185228673676239
    82   2      1.8456141467639511      6.0945576857287795      18.286169993655978
    83   3      2.1203587339801246      6.1063207696520783      16.286855343778775
    84   3  -0.0076814643070443056      6.1775431993746643      18.279978733047372
    85   3      2.0175890215079808      4.1344521502068394      18.253708785517563
    86   4    -0.33507621433426943      3.9400166483904608      20.104267327035068
    87   1      2.0043482406917059      6.0757943900731739      22.256017809010508
    88   3      2.2366340395560922      6.1129884323864143      20.197844529658333
    89   3   -0.040762135469529809      6.0976042204839969      22.312514443502057
    90   3      2.3180642691939202      3.9886004799426469      22.278079922105782
    91   4    -0.37911530635390617      3.9627439152014121      24.256644686730148
    92   2      1.9391739892253921      6.0684273723710511      26.311479404826855
    93   3      2.1097648645751592      6.0308078194129342      24.396055781011128
    94   3    0.035704890873846207      6.2396069536847616      26.439388147170529
    95   3       1.980159024878859      4.0857163250020267      26.520593177131637
    96   4    -0.36874461451820439      4.0154588710623935      28.192993038119969
    97   1      1.9457473409316768      6.1117604438647923      30.389363711218678
    98   3      2.0992175381256146      6.2125103490997704      28.346339638982375
    99   3    -0.11029223610186621      6.2736091256090143      30.428449107080549
   100   3      2.2294049055046057      4.0280383019641812      30.358193925844422
   101   4    -0.31217229808334812      3.8383824788618206      32.333404582434397
   102   2      2.0111507299104825      5.9427413647797636      34.406108332624505
   103   3      2.1142625530376566      6.1284036536328292      32.509536384916863
   104   3    0.092553395436404159      6.3338850147408357      34.418690481504292
   105   3      1.9336422742846784      4.0782504642214965       34.54824267955626
   106   4    -0.37563442486395487      3.9386449623213964      36.348326565412137
   107   2      1.9524062856491684      6.0119465378757244      38.460658861632403
   108   3       1.966365140828813      6.3285004854435067      36.489993209991496
   109   3    0.045655775848405834      6.2915724608800625      38.565343846570343
   110   3      1.9973364144751868      4.1594154607250413       38.40610671496141
   111   4    -0.17054825295187581      3.8236152602274229      40.477382835350873
   112   2      2.0000989031023533      6.0389246761521091      42.552736310979547
   113   3      2.1743437795239084      6.2655838052634323      40.394270463873411
   114   3      0.1350833611196571       6.282407978479144       42.29890239650301
   115   3      2.0432290044214105      4.1805310685742736      42.353589169856484
   116   4   -0.081474034670395989      3.9223829910113106      44.781665461467064
   117   2      2.0653786861111456      6.0497898754632917      46.604037457001901
   118   3       2.088902489264032      6.1163905498371891      44.427691272628365
   119   3    0.081926885630967422      6.1416358168456302      46.366060205419956
   120   3      2.1018105215679816      4.1342884087448422       46.51972523535116
   121   4     0.23472427668721266      8.1394402452696575     0.26742696319312664
   122   1      1.9848613447310162      10.152558140119226      2.0933113360824929
   123   3       2.020091029629548      10.057946175469676    0.034198508665617931
   124   3   -0.073623233258449425      10.240341579994757      2.0651394867295703
   125   3      2.1242498936098819      8.0542083518058902      2.0441316146968331
   126   4   -0.058613272434394709      7.9244850702653977      4.4374789764897962
   127   2      2.0125778918636894      10.186382611264797      6.0543181806099149
   128   3      2.2793305957005807      10.291248594919708      4.1226028412960716
   129   3    0.052031827031516771      10.108921059091269      5.9092885758355793
   130   3      2.0767407209169306      8.1246754446801948      5.8634067073063658
   131   4   0.0011683273590096836      8.3028320669529574      8.0966341341443346
   132   1      2.0264670915153511      10.138796232630568      10.152463971440406
   133   3      1.8456618833800651      9.8210622253739057      8.0553041953498816
   134   3    -0.10421750438753012       9.805779872573714      10.114631042915262
   135   3      2.1633243475182478      8.0369909808958759      10.297157585790348
   136   4     0.21971664284694109      8.3894957683060802      12.212535310911116
   137   2      2.1121574591463492      10.224126340444144       14.17606366799073
   138   3      1.7757836700895417      10.191813633113643      12.224157544507781
   139   3    -0.11535759854523246      9.9343416369848523      14.268990326564698
   140   3      2.0993269674625883      8.1299294037406202      13.999403813667181
   141   4   0.0078493937927306932      8.4245676637139439      16.258242088154574
   142   1      2.0190755517951677      10.177157845177158      18.205293195281929
   143   3      1.9762721986205303      9.8802896403658789      16.127555834577873
   144   3   -0.066811283313879727       9.928714698838661      18.191725313327836
   145   3      2.2422969928812715      8.0416829182542511      18.241227387005697
   146   4    -0.27955657335249251      8.3262350488210064      20.102746397212925
   147   2      1.9601975248256518      10.088145435645874      22.206155482313878
   148   3      2.0622592413215397      9.9952560664548677      20.329953272783293
   149   3    0.090650777399257879       10.03317155253052      22.416038835419894
   150   3      2.1444309981975374      8.1610799412005868      22.447938511446154
   151   4    -0.17785786002533716      8.0964881960073907      24.127653988043349
   152   2       1.970973723181791      10.140398802781172      26.274829033909661
   153   3      2.0886649792771417      10.165031539976724      24.395251484300228
   154   3    0.069927498803428287      9.9935306059522961      26.432681321589307
   155   3      2.1737031147587067      8.1092729432865092      26.319788260679665
   156   4    -0.16404045737495429      7.9380104397880755      28.286155831394964
   157   2      1.8945402720008249      10.122748733472532       30.29729313947248
   158   3      2.1145935361641732      9.9286702807681451      28.411857535031036
   159   3    0.044386429214495406      10.211437060208789      30.404406894951919
   160   3      2.0753926754804128      8.2244709905659779      30.696510296214846
   161   4   -0.084325572288937833      7.8390894559804423      32.357601877446363
   162   2      1.9181750096968353      10.147282593342046      34.409868117668466
   163   3      2.0407601534726934       10.34672661794626      32.478474961243379
   164   3    0.025102007493578025      10.206781655529122      34.505350953216499
   165   3      2.1468039401724739      8.2507626042623006      34.371100475883843
   166   4    -0.28168975693106485      7.8795952270909781      36.375104219548227
   167   2      1.9708081450037738      10.056983068626536       38.43793610676434
   168   3      2.2098852166529195      10.171553137996819      36.404501070530848
   169   3    0.087519583709550264      10.175994450559845      38.297624370422582
   170   3      2.1616291876228133      8.1915950642435504      38.472067959747314
   171   4    -0.10133286616925156      7.9596402880928165      40.558548589123028
   172   2      2.1408176739816183      10.105283200014675      42.480010005744134
   173   3      2.0239811726806809      10.311200953912246      40.394243410643618
   174   3    0.038253920939818394      10.158722120004795      42.399391821573708
   175   3      2.1187345598070988      8.2181575866563623      42.343015915869273
   176   4    0.029750373958258847        8.20765847731845      44.952971583658282
   177   1      2.0469335375374862      10.078770835528129      46.577389551461103
   178   3      2.0319893619160991      10.244549769909213      44.381719594539028
   179   3    0.009613813992923893       10.18969894912888      46.470835821165174
   180   3      2.0544209735395609      8.0469160827258435      46.358233765475141
   181   4    0.025922494363200731      11.715778610319173    -0.15906784203223168
   182   2       1.855000138110418      14.198997384681098      2.0191379955891247
   183   3      2.1025381749147374      14.318166149973777    0.091362454620741357
   184   3   -0.046579111160000117      14.238286602592771      2.1534201697623336
   185   3      2.1902749836668636      12.244839225631059      1.9947679872918795
   186   4     -0.1873273271721928      11.860706909038718      3.9952386481545168
   187   1      2.0292256124238151       14.15290118600919      6.0626186881628223
   188   3      2.1968637824006145      14.102710167441245      4.0117119227549694
   189   3   -0.041715239465920741      14.124451202053871       5.934109705364139
   190   3      2.0315218072490979      12.088934254906558      6.4054767906442382
   191   4     0.27565046948362176      12.312670247180815      8.1566574207615687
   192   2      2.1771790090709491      14.173229359946118      10.080764167967015
   193   3      1.7999384582209061      14.244510027399031      8.1424808509614692
   194   3    0.060992286360178297      14.275864429175504      10.332354963865184
   195   3      1.8353762889458127      12.178740190275908      9.9650626103040487
   196   4     0.20727599156763751       12.41315325084634      11.964873926984891
   197   1      2.0461914889314756       14.18867892278625      14.148259561583767
   198   3      2.1317294137622826      14.018682527478161      12.089208007375399
   199   3   -0.081535506834499449      14.136646914708182      14.070284498974647
   200   3      1.8413544310773058      12.087674865178453      14.314472227243826
   201   4   -0.033194608664226348      12.457587651726051      16.060334210492385
   202   2      2.0169635974401818       14.19578838541271      18.095958342378552
   203   3      1.9069022720842084       14.09218906372304      16.231556398670755
   204   3    0.042893554470780512      14.219873565651104      18.428975002699932
   205   3       1.921673547648441      12.223493777182577      18.411790831862998
   206   4   -0.079522530894689733      12.247266667088255      19.912382760701931
   207   2      2.0861807318682968      14.060896887400885      22.242090628815042
   208   3       2.056905721635196      14.273393152947502      20.359308630235166
   209   3     0.02167498146230859      14.239501516381747      22.326765680397436
   210   3      2.0116902965201082      12.130335231978755      22.249465244943348
   211   4    -0.17729164074252121      12.313827137974545      24.319079280127873
   212   2      1.9750091136473256      14.298735865198184      26.310654883579886
   213   3      1.9766017749053371       13.95712137841384      24.320065871192153
   214   3    0.067339218228161996      14.046597269477527      26.373753050097005
   215   3      2.0079572460489592      12.045364804129212       26.54615936547631
   216   4    -0.19094996308507978      12.247250715864755      28.172025270782967
   217   1       2.044046442516537      14.090249304261588      30.345512263883258
   218   3      2.1773699721319466      14.261133705934387      28.276584890256217
   219   3   -0.020652561942904178       14.12585666254871      30.399594928297528
   220   3      2.2845387329579374      12.041640892366226      30.333257800418632
   221   4    -0.25309253342115651      12.118718806174043      32.386092931620418
   222   2      1.8520999588327587      14.173218501962459      34.441976732350334
   223   3      2.1933034971646732      14.083030291632371      32.482318540093779
   224   3    0.018651939260098633      14.170889388192496      34.318967461887283
   225   3      2.0830085867943238       12.22102801271966      34.553573865729817
   226   4    -0.31973799841009914       12.08607985196025      36.518118345415012
   227   2      2.0203764996632549      14.140861909048754      38.486528666315536
   228   3      2.0098033160322917       14.42018137135093      36.389973848864997
   229   3    0.081136183966640782      14.385693328110852      38.456582368086835
   230   3      1.9655041698861573      12.252168174060836      38.257121578299312
   231   4   -0.099233036547250519      12.172410111408915      40.612082283929311
   232   2      1.9814114743061129      14.146901369786731      42.603204083294102
   233   3      2.1544333407515479       14.18027467120984      40.366219520531772
   234   3    0.089672362430725142      14.183428166985214      42.277677662426363
   235   3      2.0688492408038757        12.1898302447657       42.37686898682999
   236   4     0.23627359481602755      11.941264195190204      44.922308519186551
   237   1      2.0529234737672106      14.185588075716852      46.611286258696438
   238   3      2.0331534685326305      14.211604718170351      44.462212735132255
   239   3   -0.034765521563525026      14.423185469004428       46.58230267901687
   240   3      2.0300382057699182      12.162849801272785      46.572563982601011
   241   4     0.11093785978621214      16.336900878333111    -0.13906599158905875
   242   1      2.0922282046441114      18.230952826898374      2.0304885311295893
   243   3      2.0916693096804067      18.005119379313108   -0.053341988897796781
   244   3    0.010903548713721142       18.20476392362842      2.1643161472423844
   245   3      2.0850507411151029      16.154788843730952      2.1889759630876027
   246   4  -0.0026117911703598248      16.180399405787767       4.295163494510061
   247   2      2.2052870407055134      18.131633413057628      6.0314403723952248
   248   3      2.1261757803377654      18.390009096101959      4.1321765854239372
   249   3    0.075689811636256779      18.429784189439239      5.9846186318617507
   250   3      1.8695741378127664      16.233820697816849      5.9938190951159465
   251   4     0.36227124618818629      16.207690447101232       8.148645630768609
   252   1      2.1414747086258692      18.223067451674961      10.132414308559277
   253   3      1.8756574805959696      18.155664916821827      8.0629363816973765
   254   3  -0.0042028046692637209       18.11295291517941      10.198298169711414
   255   3      2.0523030446587711      16.137615197674712      10.161482177046901
   256   4     0.34467404845559851      16.133762241139184      11.976128513255111
   257   2      2.1787552257234011      18.159337001415199      14.125080966652241
   258   3      1.9353249433941049      18.222887835678119      12.201775661746026
   259   3   0.0081144182191145702      18.285300921659651       14.21602797236941
   260   3      1.9268387847135455      16.241729145116263      14.206429968386571
   261   4     0.13904272270830598      16.483195909131727      15.887462726708842
   262   1       2.062912301011484       18.23014332111725      18.219433911414221
   263   3      1.9064931027987655      18.259214586676617      16.148251721209981
   264   3   -0.081951751601244446       18.19441547544449      18.334396997664083
   265   3        2.02372184432694      16.129433605395281       18.31354318527162
   266   4     0.13933250381542087      16.170959606241759      19.938679218900585
   267   2      2.0733663111548961      18.044968209143128      22.277718312706657
   268   3      1.9035337292508316      18.124827151503681      20.343832715416358
   269   3    0.065458623395359919      18.183449162753067      22.447656150767791
   270   3      2.0718586998154152      16.141632616886628      22.494162772477925
   271   4    -0.14886591132383142       16.20159256200462      24.150480414148703
   272   1      2.0106573228037963      18.208718482783322       26.30427281175292
   273   3      2.1235067044382268      18.466722817658763      24.243968575891728
   274   3   -0.050126719366096945      18.119443678181614      26.222060530993023
   275   3      2.1326607627887526      16.139411723486159      26.153137319477409
   276   4      0.2142980880084297      16.458809341545614      28.641640647067256
   277   1      2.1127581021192667      18.208715004305603      30.402713366609671
   278   3      1.9970085062349938      17.991839682320421      28.339687744526529
   279   3   -0.029768375250903447      18.129581829144534      30.335409328240193
   280   3       2.076491683791764      16.156770400999722      30.489497821968353
   281   4     0.27029862664765753       16.41067066551566      32.165012668811123
   282   2      2.1538575700293134      18.246618147234653      34.454572751648762
   283   3      1.9552519343771739      18.287228753415366      32.443116034068609
   284   3   -0.022967429344429684      18.148842604130376      34.299061458173576
   285   3      2.0347109971722834      16.208441554233247      34.196091059012538
   286   4    -0.10049821577677183      16.202662288472133      36.732723990035652
   287   2      2.0563748155617061       18.24285958292301      38.554341457302463
   288   3      1.9019701695544506      18.076383487429215      36.356172697596776
   289   3    0.070204650752195258      18.171269292171868      38.353191530799172
   290   3      2.1454386828928365      16.232096116383346      38.428618408452962
   291   4   0.0076243717266155269      16.102046133230917      40.703121432103877
   292   1      2.0515122799309307      18.184980523291575      42.559040097102155
   293   3      2.1112246935350067      18.234162914320802      40.417408449963709
   294   3   -0.029866559324675784      18.074905466118395      42.366582131183527
   295   3      2.0556727257561866      16.090656332007931      42.326926866731782
   296   4     0.26425239607376844      16.412244366015546      44.798229022204595
   297   2       2.155891843711637      18.257292610314884      46.636371412533393
   298   3      1.8661962947887256      18.249687260795778      44.623856782844712
   299   3    0.089180509395126464      17.966893131992457      46.695677883976678
   300   3        2.16333055449874      16.240035629380003      46.410786069875869
   301   4    0.013793972610676464      20.302902632223201    -0.21836726058630965
   302   2      2.1069305452009561      22.149028261086304      2.1091629792334685
   303   3      1.9879042804459444      22.278329708138656   -0.026649429764988762
   304   3    0.009434761871373782      22.279155357877826      2.1062880430246689
   305   3      1.9931827118501171      20.283522542703132      1.9065265436942018
   306   4     0.29210531957111091      20.042784288052324      4.1820951595771483
   307   1      2.0556692425657381      22.301815344319095        6.10027435354709
   308   3      2.1443737844356923      22.176381649091763      3.9949005126783481
   309   3   -0.014878351553294061      22.138403472440032      6.0525731018881892
   310   3      2.1661494735208908      20.211554348584738      6.2651540627737203
   311   4     0.32380886470527259      20.012072654260859       7.871586836107463
   312   2      2.0014808084856432      22.136599408078411      10.156624985882763
   313   3      2.0907725382277054      22.383522838909489      8.1830661021984312
   314   3    0.057275989176641631      22.563099788713149      10.119478327142538
   315   3      1.8894771534202444      20.269765460752019      10.162154501708205
   316   4     0.30021831390521397      20.016398582795787      12.303334000979236
   317   1      2.0514869940124529      22.278739565804493      14.224316443808577
   318   3      2.0094429990514624      22.447027055501458       12.12217488501736
   319   3   -0.047303582368898714      22.365217011992865      14.225202118373712
   320   3      1.9092773719483758       20.19744119652913      14.117133697060344
   321   4     0.28697664967153724      20.104910078627356      15.951832186362902
   322   2      2.1220838827145814       22.19021119365383      18.203119529867145
   323   3      1.8908859090723966      22.078106286261516      16.302552586910142
   324   3    -0.07038835162366304      22.386260902836209      18.344985737463364
   325   3      1.8820974264787109      20.311885305420347      18.516288542353266
   326   4     0.24962973132609023      19.999509158644013      20.285205090956545
   327   1       2.031501613234147      22.258824434739541      22.267573868968864
   328   3      2.0119770146110687      22.591485323931565       20.19684306067662
   329   3   -0.061736544806817256      22.503209352998571      22.330215201085778
   330   3      1.9115421214298798      20.214442618052839      22.072021916841049
   331   4     0.20715167494490991      20.040306415202931       24.04505624906739
   332   2      2.0961449438678237      22.137621578147787      26.332093407540953
   333   3      1.9663378853443525      22.260160800225858      24.361652199872541
   334   3   -0.026616735453053326      22.453779179631983      26.297863955881905
   335   3      1.9005720193698461      20.285513512811033      26.515586675195333
   336   4     0.13710320814624713      20.001292738366111      28.664056833999034
   337   1      2.0458030711131459      22.244612020619851      30.380136163257902
   338   3      2.0000624520448969      22.517760599343433      28.272306577600109
   339   3   -0.088717738346489688      22.236839576276118      30.159755606447646
   340   3      1.9482295407730117      20.211576080662059      30.157336395074477
   341   4     0.37500077987467512      20.115609973580174      32.194505334428733
   342   2      2.0974436928216798      22.302883046171694      34.321412138796603
   343   3      1.9549937933061914       21.99803197328615      32.434402922829719
   344   3   -0.042337467338899537      22.368652624047666      34.386410454090843
   345   3      1.8853617763979149      20.177199915968036      34.484160321041244
   346   4   -0.086671614985989895      20.093780987129502      36.736523287724012
   347   2      2.0371181489145274      22.291424942496256      38.306953724154326
   348   3      1.9949263816316252      22.310955427960128      36.400869220044356
   349   3   -0.001630926639632712      22.225763160111818      38.362595567693361
   350   3       1.921217719681549       20.23136990222017      38.347590553332914
   351   4   0.0073057988619364351      20.083327093309855      40.707706622953175
   352   2      2.0100262920152296      22.227293016847817      42.330021308767343
   353   3      1.9397618611645804      22.208338057364102      40.450639827244061
   354   3     0.10644667372509549      22.337560147957848      42.720492179964666
   355   3      1.8264632556218672      20.259543513640299      42.518957883397185
   356   4     0.27585976205794155      20.308576837649799      44.440919234855251
   357   2      2.0811300089058777      22.350867962943248      46.619370148374252
   358   3      2.0648786563888333      22.037667376727725      44.651362864426851
   359   3     0.05066171328340343      22.216571958806369      46.642372453972214