(written by ASE)

8640 atoms
4 atom types

0.0      48.599999999999994  xlo xhi
0.0      48.599999999999994  ylo yhi
0.0      48.599999999999994  zlo zhi

Atoms # atomic

     1   4     0.22372316246520574    -0.11750271920606241     0.27187965914473761
     2   1      2.0117952149889926      2.0435886019805536      2.0996304972136173
     3   3      2.1299623055727368      2.0058396814414121    -0.12828434021398666
     4   3   -0.036379157807314086      1.9575568876103879      1.7753323553738645
     5   3      2.1117088012702179   -0.027621849165167221      2.0125272158332672
     6   4     0.20033485206002311    -0.25069144701635843      4.1895854432561812
     7   2      1.8905731730789332      1.9968484274193166      6.1326440790709684
     8   3      2.0914311481969685       2.177342590777108      4.1516952773685238
     9   3     0.03419242321206261      2.1295857762486667      6.1024603774960386
    10   3      2.0354660167141501    0.051848595348034265      5.8801415647695165
    11   4   -0.017419024618000045    -0.36554955278803875      8.1378224327723654
    12   2      1.9439514797555999      2.0480939690507838      10.182560416266071
    13   3      2.1879742497373114      1.8773872838607757      8.0808782290590049
    14   3    0.044820317901637853       1.821187336424597       10.05560605637929
    15   3      2.3434558097633547    0.099921729127753572      10.224111630850336
    16   4     0.10016743200945892    -0.28336659961779986      12.217092459404284
    17   2       2.058369052115002       2.049589140653485      14.348121227177295
    18   3      2.0216542616031243      2.1498578225309384      12.074128697731686
    19   3    -0.06459053382134558      2.0070106391062992      14.199583361756149
    20   3      1.9982515648115096     0.10046838014408997      13.986379153777673
    21   4    0.040580884492091178    -0.34614107351196072      16.217799387395416
    22   1      1.9783361957122574      2.0591621572861829      18.277633326697242
    23   3      2.0564363474315908      1.9717365076688285      16.211922572555601
    24   3   -0.082226163306521508      1.9328513580371725      18.434883741288452
    25   3      2.2571413961723326   0.0025618413106826684      18.320951193435619
    26   4    -0.12708735679862024   0.0045390667634409021      19.988052914025349
    27   2       1.867625199883431      2.0572653415590758      22.260962816378761
    28   3      2.2281288572259723       2.023110097029809      20.367333289046325
    29   3    0.016284597736918184      2.2389670176072163      22.240408442675974
    30   3      2.0595480749462469     0.14866830984404417      22.492146631803081
    31   4   -0.071229957526773247    -0.33864604205210602      24.361608119565609
    32   2      1.9136578075227642      2.0134967285158623      26.251823696094814
    33   3      1.9849549528924177       2.238764219983997      24.363710234848455
    34   3    0.022655189791038019      2.0938297910454144      26.423464016802317
    35   3      2.0814222675924614     0.13722296284391422      26.247028534195941
    36   4    -0.14371121857544952    -0.36610488743202568      28.275854051304304
    37   2      1.9311051188861843      2.0037296389742574      30.235274408689133
    38   3      2.1230026289055544      2.0345862396509689      28.329978524167817
    39   3    0.059766089821098704       2.181886353009701      30.401840438586717
    40   3       2.020592866569459    0.096501438530680508      30.473022734050879
    41   4    -0.35908101609704496   -0.051004900903999825      32.469833600078047
    42   2      1.9632794505784503      1.9248957010646504      34.402465925965572
    43   3      2.0509797249171853      2.1511406808344016      32.479627515079216
    44   3    0.083730882744609825      1.9129556997915438      34.443127723110628
    45   3      2.2633941621860854    0.055117498647014249       34.42653881716469
    46   4    -0.35941757516188738    -0.19049238868941809      36.339990991184386
    47   2      1.9562357411990732      1.9192363956068383      38.396630751176339
    48   3      2.0848511570095654      2.0836106438966615      36.442212411912131
    49   3    0.077432483622470696      2.1381573359147716      38.516805754102606
    50   3      2.0743765842001913    0.066089971146682136      38.500560775681876
    51   4     -0.0951741328269365    -0.24324819130701422      40.541997107831335
    52   2      2.0530621926454695      2.0437696904892579      42.490800078150919
    53   3      2.0981665256058006      2.1751249546368854      40.470848226548974
    54   3    0.034000486180084916      2.1667420591413484      42.410801692100605
    55   3      2.0481225868621844     0.16772077227699242      42.559286816657362
    56   4     0.10411247614775931    -0.34219639320029088      44.508108277836428
    57   2      2.0363026474246921      1.9057382357212176      46.542743134011729
    58   3      1.9629529732522322      2.3034799673324984      44.469537260157473
    59   3     0.10335228018741312      2.2190695596773158      46.540518884000718
    60   3      2.0504298092025808    0.067543229914910977      46.348162871573166
    61   4  -0.0099514526723757553      3.6878027020153863     0.09094765803580937
    62   2       2.057085270692224      5.9907433078429815      2.1101095076125036
    63   3      2.0011907737914787      6.3480412104984696    -0.10220167203809373
    64   3    0.032167464520516741       6.252573928686747      1.9512340163111153
    65   3       1.991739328280888      4.1233645816258209      1.7384817449955063
    66   4    -0.17014585104581395      3.9876547344563016      4.3973688911969875
    67   1       1.998519119092546      6.0616085256194792      6.1245348493071807
    68   3      2.1162067924137418      5.9434401901783653      3.9945538815752415
    69   3    -0.05727020632713975      6.0291333426657072      5.9341934092282633
    70   3      2.2079407241168854        3.97005586476409      6.1740396198385268
    71   4     -0.1822071621207918      4.2552233362678322      8.2945862425656181
    72   2      1.9173916253309293      6.2063933210325422      10.151435965569732
    73   3      2.1454407340062769      6.1263508748843645       8.188655032730626
    74   3    0.032757937799876152      6.1325003666892615      10.107963954472559
    75   3      1.8712504614094121      3.9937324349608305       9.893398012141537
    76   4   -0.058035240344232637      4.3264892170300397      12.213242321177491
    77   1      1.9811684419030742      6.0824661934765691       14.19733534323457
    78   3      2.0130755651666097      5.8077757067446312       12.05912404355924
    79   3    -0.10688606986294762      6.0016250313171655      14.138342474644347
    80   3      1.9500839237324783      3.9941744842888349      14.214204445839473
    81   4    -0.22222339569161209       4.339782736479358       16.13024988508295
    82   2      1.8374574514257351      6.0918990316860224       18.28681968514336
    83   3       2.091996737299147      6.1226358779304366       16.29247091266425
    84   3   -0.012139889220486285      6.1778826691923321      18.327816386751394
    85   3      2.0309680556002574      4.1385359388492651      18.245839705193774
    86   4    -0.34262728000913995      3.9389860328005319      20.108428183083713
    87   1      1.9958111720069371      6.0770237876723119      22.253856337992314
    88   3      2.2674338494584734      6.1022571334052422      20.197667907785206
    89   3   -0.053051039183401663      6.1170110564113536      22.292185205656519
    90   3       2.311074606870676      3.9995546451476325      22.283110515366303
    91   4    -0.39064826253446644       3.977367726309271      24.254951260454401
    92   2      1.9452951167969446      6.0734171033730817      26.304554421931648
    93   3      2.0724423950980375       6.047221908466617      24.388849612767991
    94   3     0.03517845199375972      6.2239767574578257      26.477167178131786
    95   3      1.9903622214230181       4.091106136062276      26.513678392230645
    96   4    -0.36469001101134507       4.031750835448757      28.169801220026795
    97   1      1.9467592902705089      6.1006430717503033      30.391297261909624
    98   3      2.1344575003990585      6.1989759113446627      28.350098053936218
    99   3    -0.10789156530470773      6.2619032034057067      30.404883127685679
   100   3       2.237822476107437      4.0220431642070791      30.352315439802371
   101   4    -0.31450514594627371      3.8336663601042211       32.33460790115744
   102   2      2.0090748291203822      5.9267138024693287      34.407088917943405
   103   3      2.1052754137303489      6.1292004441708965      32.503098292784244
   104   3     0.08834845326218492      6.3145645354937132       34.40526404280709
   105   3       1.939912509092264      4.0617490967383274       34.54084571960896
   106   4    -0.38754330712001717      3.9527354642327035      36.341133423288888
   107   2      1.9345537315718881      5.9996773956962652      38.455546351100928
   108   3      1.9620535422374592      6.3159377070788771      36.460774105421933
   109   3    0.042884619844998056      6.2733043782799411      38.537090714046087
   110   3       1.988150159002209      4.1403982031929862      38.365531097332244
   111   4    -0.16759034029923306      3.8420566660912603      40.515745565008835
   112   2       1.972180573180472      6.0844196504067636      42.585860098511148
   113   3      2.1955098999087559      6.1861301353458185      40.359780149581567
   114   3    0.098340682737847546      6.1907690927314993      42.300026468101919
   115   3      2.0745615797003918      4.1723076288223275      42.348384035517832
   116   4   -0.097369769483361956       3.918104402237474      44.740520700423154
   117   2      2.0578559540880703      6.0517154862766533      46.621718248674298
   118   3      2.0542121622313192      6.1019167324340309      44.467645590643357
   119   3    0.079037356002729861      6.2118954417072363      46.391287548515436
   120   3       2.039247233394109      4.1745650947281074      46.619176670930614
   121   4     0.13228504859002638      8.1318045811047899     0.29881861123983139
   122   1      1.9884780592866713      10.157942585766648      2.0572927581939617
   123   3      2.0272016674308957      9.9273529360909585   -0.037957443313411096
   124   3   -0.066954204176861071        10.1693187735567      1.9421359294812917
   125   3      2.1297437367774279      8.0571612396110215      2.0868812399859311
   126   4   -0.093058773762903474       7.962397328998418      4.4241057133380153
   127   2      2.0154803468038098      10.190180499319455      6.0059534773376573
   128   3      2.2753498465651578      10.246247808358397      4.1051770901095752
   129   3    0.051688004406460326      10.091058602389735      5.9815041638737751
   130   3      2.0614628274090721      8.1314236192027973      5.9005981439565005
   131   4   0.0053920721637407678      8.3725714417895531      7.9935204810826379
   132   1      2.0218685346276466      10.149405199343109       10.15782133896821
   133   3      1.8510339497177648      9.8970747258441065      8.0654526561610158
   134   3     -0.1005943304447649      9.9056872260437778      10.157667408205469
   135   3      2.1485191101872898      8.0544071049443513      10.315229685057295
   136   4     0.24483627946186234       8.382384349106859      12.235340007643105
   137   2      2.1367336643057899      10.176685378953623       14.22691840465126
   138   3      1.7875509024429466      10.217628178274934      12.232174199118733
   139   3    -0.11167927683375167      9.9241706360107464       14.25125545810841
   140   3      2.0869664053225345      8.1438869171094197      13.962433175420752
   141   4    -0.03177699235619319      8.4298261862417618      16.281195812101192
   142   1      2.0286733801188568       10.17133189637366      18.217721749632073
   143   3       1.977377392648044      9.8941968042223447      16.140711108498198
   144   3   -0.056202404551421448      9.9307535744293745      18.223220399930156
   145   3      2.2504619516509781        8.04216776612021      18.268276439322772
   146   4    -0.28420191079885215      8.3325545170773392      20.092781805834068
   147   2      1.9633521210391518      10.092442325712428      22.215099251318165
   148   3      2.0908833363826225       10.03385860059123      20.340449754955042
   149   3    0.093229775849566265      10.023454411934802      22.405771291127355
   150   3      2.1757068320449151      8.1617261795766307       22.41360157046126
   151   4    -0.19220299560092843      8.0902265596553455      24.120907536683102
   152   2      1.9606145781588233      10.146171208295566      26.277351849884237
   153   3      2.0701338810099745      10.130478707005743      24.398003526063636
   154   3    0.064598076691926631      9.9997884533821253      26.456779590611557
   155   3      2.1488180739945437      8.1136607751306062      26.353299459670978
   156   4    -0.15619455651103942      7.9496856252025605      28.280054260115449
   157   2      1.8924612861586618       10.12156598049547      30.303537043198961
   158   3      2.1420258254939997      9.9609210062742779      28.409714714803531
   159   3    0.040364420250650394      10.210934824578766       30.37220735133225
   160   3      2.0793845461237113      8.2194002577206167      30.663817400286433
   161   4   -0.084148121114383384      7.8251634845365752      32.371104907836596
   162   2      1.9294814063100685      10.118119081451953      34.400642849632781
   163   3      2.0245077543722667      10.335373259425417      32.459289408926615
   164   3    0.034206417881607824       10.21285709013978      34.494288672564096
   165   3      2.1260485414869192      8.2341387501303558      34.354303137394226
   166   4    -0.27821515485374093      7.8832859015293488      36.379558106696081
   167   2       1.984492543893454      10.032944159207982      38.442368767729363
   168   3      2.2272704819097311       10.19885680101512      36.367242173691643
   169   3    0.096622249176463143      10.150631694852638      38.224794533946088
   170   3      2.1904217648989239      8.1567632909318881       38.44065015155077
   171   4  -0.0048296911395088729      8.0387598731216539      40.708708543035463
   172   1      2.0649911470873592      10.118739787386369       42.50582846684992
   173   3      2.0197658727780423      10.264987858758383      40.342255472840463
   174   3    -0.02057139237958918      10.143297290654285      42.403001461909888
   175   3      2.1074931973461624      8.0550877756551635       42.26936574734524
   176   4    0.034447358463257839      8.1919428233562606      44.895927451061326
   177   2      2.0955881333894548      10.181201883197481      46.695415991220834
   178   3      2.0611207138524947      10.351107185776332      44.541510865388766
   179   3    0.080164038825280656      10.109666536739462      46.451534692631768
   180   3      2.0649402240766581      8.1423149058002817      46.314346516704518
   181   4    -0.24357676712782023      11.956038798159957    0.066115979820266582
   182   2      1.8516211934494404        14.1952741456296      2.0153851003186376
   183   3        2.14423227642934       14.27823404226055    0.086700095347488293
   184   3   -0.022929379914995149      14.238614113388769      2.1013706372506484
   185   3       2.206627347188356      12.230741257756735       1.984144662662582
   186   4    -0.32797289200979202      12.069157039636762      4.1174882086361864
   187   1      1.9944136972140112      14.166915946159648      6.0985065488715131
   188   3      2.1764607331401415      14.122954033248982      4.0070604773882765
   189   3   -0.084156559158205163      14.122754247215903      5.9156351826072768
   190   3      2.0440280927818986      12.095998226162111      6.3390171675370883
   191   4     0.30898908427959754      12.180435947408901      8.1620250365280054
   192   2      2.2152510920315818      14.166260377484516      10.101162644960912
   193   3      1.7610883649353175      14.226480070673571       8.183743394029765
   194   3     -0.1114004945552176      14.331730500271817      10.240752942556592
   195   3      1.7743059275720261      12.203175065550871      10.024752202722016
   196   4     0.35679858971053363      12.244264836288968      12.149326637425313
   197   1      2.0413920752290062       14.20487132260137      14.136801647680418
   198   3       2.032607346458533      14.016487755072843      12.071088191476951
   199   3      -0.096258563118318       14.13822908279448      14.037346969236518
   200   3      1.8039219368361186      12.072903332006572      14.258682021816284
   201   4   -0.026760743086072437      12.438685795259502      16.040131443131322
   202   2      2.0114129493410866      14.194333893635292      18.090762214126045
   203   3      1.9109816709734546      14.105855033682833      16.223942942003436
   204   3    0.054092337400741944       14.22743967803309      18.434928322220397
   205   3      1.9254026208017145      12.223141233887391      18.389348384408475
   206   4   -0.053814435144017188      12.219361015541098      19.900489026276919
   207   2      2.0868220704916496      14.055733139113112      22.251180973373032
   208   3       2.056704972398276      14.210921759521941       20.36557742339139
   209   3    0.016317126530232932      14.235392900182454      22.368420636574637
   210   3      2.0052149585847476      12.124304049524079      22.309757434276005
   211   4    -0.16938220431723583      12.315314884184954      24.319058286552583
   212   2       1.990715068732648      14.307723116616932      26.350460798875094
   213   3      1.9941343670913418      14.015154126222816      24.334026920355782
   214   3    0.069399117032263008      14.115036680621643      26.361982021061511
   215   3      1.9962669016571517      12.050252561917841      26.508908181864211
   216   4    -0.20776136865358705      12.222826916596389      28.169093600635929
   217   1      2.0549206284265908       14.14314869929988      30.340744281835779
   218   3      2.1679054919021694       14.19032296603759      28.288350117831612
   219   3   -0.015316031092065327        14.2070588980962      30.435744488041529
   220   3      2.2599307400207822      12.055606157144089      30.345612176612612
   221   4    -0.25217322733453379      12.064404523084857      32.384588990094876
   222   2      1.8902120296463361      14.135209978442953      34.435744797001405
   223   3      2.1978909651613066       14.15748650883241      32.476240667379848
   224   3    0.046136465340108831      14.256235618633943       34.25654398465651
   225   3       2.072004165259183      12.231593728597266      34.502253457160656
   226   4    -0.29168056866332498      12.039479067982896      36.542856467800618
   227   2      2.0415671150145065      14.157585248361279      38.462754563054133
   228   3      1.9854111797883587      14.417935621139375      36.376766429794237
   229   3    0.085555043423914304      14.427170853683139      38.479824149923331
   230   3      1.9565634879557083      12.265673408718373      38.295971378144493
   231   4    0.042974922426164942      12.084555601616911      40.728374512850969
   232   2      1.9961642319990318      14.167482782319411      42.621044585595257
   233   3      2.1486488600166096      14.269922282621314      40.352511019033237
   234   3    0.094341068240359635       14.19250464023551      42.287681370033894
   235   3      2.0991251614611555      12.245421513390369      42.273740935928728
   236   4     0.22643636849327836       11.89313584160614      44.737322988649787
   237   1      2.0762354497613815      14.149156347446999      46.623015388100242
   238   3       2.026517608124673      14.073995059111825      44.480759363733029
   239   3   -0.014827677265367881      14.393518932373762      46.558840092173313
   240   3      1.9819744518889144      12.097619028578789      46.627700012548402
   241   4    0.069621933338459216      16.358807508169036    -0.12937732691344456
   242   1      2.0919166377384633      18.235402202233502       2.012534447404454
   243   3      2.1248516373500164       17.95212657874216   -0.066197933985262025
   244   3     0.02200391615639331      18.173296301544198      2.0450725457729333
   245   3       2.177493488117328      16.135950014353448      2.1400726260631804
   246   4   -0.060648594543647773       16.08387959133567      4.3118689434289568
   247   2       2.175372663425863      18.124348793134303       5.998449743351479
   248   3      2.1056867910887656       18.38173262174649      4.1118176984554813
   249   3     0.08184690378841937      18.440970625486923      6.0266576561096059
   250   3      1.8656444131211698      16.228817928918389      5.9917579417956581
   251   4     0.36495054095796259      16.271770408200211      8.2006377878680823
   252   1      2.1167879290033533      18.204959061438029      10.148418796662485
   253   3      1.9290128865663458      18.126149388186672      8.0770756424238304
   254   3   -0.041055123775327482      18.066481544758826      10.132518124045731
   255   3      1.9908602345720161      16.112183706958394      10.195367187249694
   256   4     0.35035768069328799      16.281102886684412      12.128615191364373
   257   2      2.1860251678185203      18.189876683696198       14.16580510249141
   258   3      1.9036563225482477      18.221737193802952      12.208672533685993
   259   3    0.010058754405014216      18.277292113791063       14.20216335347099
   260   3      1.9097664034055788      16.258065475658086      14.165646144832818
   261   4    0.074804994435260105      16.483487974452697      15.887111106040495
   262   1      2.0479061872556565      18.216191269500783      18.211826472182043
   263   3      1.8955023662871138      18.250708064406094      16.147052685268942
   264   3    -0.07573268907148191      18.186587073746946      18.412714472668394
   265   3        2.06626119850457      16.124742830466168      18.357094571985954
   266   4     0.08377115850490828      16.165417110240334      19.914984965252366
   267   2      2.0338061582655351      18.037555443908751      22.293562203244786
   268   3      2.0053242235733713      18.235950420615506      20.339149584212372
   269   3    0.059909547564412448      18.238169870295994      22.343878566779775
   270   3      2.0506099350669249      16.136782967593831      22.418580541433123
   271   4    -0.15381976095429475      16.105306554747905      24.186669867864399
   272   1      2.0115748055093956      18.234787431254876      26.308226757439499
   273   3      2.0777220552229507      18.403408790347914      24.253126393506186
   274   3   -0.039172679279627164      18.117295521623625      26.429354184345996
   275   3      2.2010407906561094      16.159979338978093      26.264190405945349
   276   4     0.12217332223717335      16.416073721856947      28.549235025222579
   277   2      2.1648521860264127      18.250708005192475      30.343454654428772
   278   3      2.0494838728742493      17.977015753081908       28.41746103541108
   279   3  -0.0034309277420857646      18.149249853331991      30.201733739015769
   280   3      1.9943309588315006      16.240551480355467      30.601449721648738
   281   4     0.21666231038386713      16.201089337909917      32.274848612116863
   282   2      2.1051375669627164      18.208615239656325      34.470178442033564
   283   3      1.8741133183949079      18.360105163072053      32.363666854436708
   284   3      -0.037158218625082      18.213159318791366      34.305567937805201
   285   3      2.0035191113347404      16.279466262579362      34.189264024648082
   286   4    -0.16168184796629237      16.127346672669955      36.718531612549427
   287   2      2.0450187721265745      18.224573101981097      38.589202084986745
   288   3      1.9690769544331661      18.191429035938341       36.34084912758123
   289   3    0.076620622824936341      18.165577739552603      38.331572401067341
   290   3      2.1608945575178127      16.257116953673187       38.37232543579303
   291   4  -0.0017531538318360266      16.035323101973784      40.658406639500775
   292   1       2.053879227750369      18.201709121512813       42.56577749542766
   293   3      2.0986166875350345      18.186214621413949      40.443981492472027
   294   3   -0.010806890221452974      18.079760107486457      42.457006999789783
   295   3      2.0956969617983656      16.104759676911794      42.433497311365919
   296   4       0.296083001552012      16.378298661741297      44.791059132736805
   297   2      2.1231444205188716      18.282508870153713      46.606259429193109
   298   3      1.9273758472047426      18.237268550647215       44.63589985698863
   299   3      0.1029517670550706      17.978857104749174      46.680712575496663
   300   3      2.1703320645339179      16.211415602688234      46.389660903088917
   301   4   0.0047295524447149165       20.36139971470902    -0.17490892866482852
   302   2      2.0979538938551792      22.145270844131733      2.1071874487135234
   303   3      1.9761721063192332      22.302102415756082    -0.01623497852528015
   304   3    0.011559193426874958      22.266121001233177       2.092335626679378
   305   3      2.0048642494193518      20.281812012139216      1.8825097444477892
   306   4       0.208266726067731      20.037873973248491      4.1955592347020598
   307   1      2.0378597423170244      22.289948429808192      6.0949251431657556
   308   3      2.1489254810860743      22.155841622702201      3.9943793914183554
   309   3   -0.037844452855678702      22.109683124866152      6.0626688107855129
   310   3      2.1752086455831785      20.202116272986533      6.2797303126755226
   311   4     0.35112151455863461      20.001765871690456      7.9086544994991819
   312   2      2.0121273140280977        22.1338277631884      10.164784856421734
   313   3      2.0922621697585133      22.382382149265545      8.1789378659960317
   314   3    0.058314499721542436      22.545477449235758      10.106301263783882
   315   3      1.9033806287063917        20.2605830387296      10.150901981138325
   316   4     0.29721481878724026      20.033529176898568      12.305718362882008
   317   1       2.053216027047049      22.270336156760013      14.223021162865708
   318   3      1.9911739158237851      22.420536249383385      12.122408129255069
   319   3   -0.056243616085728455      22.407236300828291      14.257162231294092
   320   3      1.8954356223809727      20.199460176176053      14.118199510419014
   321   4     0.21900332727546484      20.101392979924547      15.958285802541726
   322   2      2.1093841758610901      22.187024830963711      18.203280114693456
   323   3      1.8929989084281005      22.155243396491858      16.300158172733262
   324   3   -0.047737163524635216      22.441476722492535      18.331699729186852
   325   3       1.864494320590421      20.313777358852793      18.466665511610842
   326   4     0.13160764673768874      19.902396292550385      20.213192884145037
   327   1       2.028688480215588      22.273087027693865      22.248412648887633
   328   3      2.0103381368322131      22.592142823887905      20.196684161155165
   329   3   -0.060316030958640923      22.445761662262708      22.419206258597505
   330   3      1.9875079781137577      20.225941402746201       22.19913452449897
   331   4     0.16238818102651062      20.103554785378488      23.961780219713898
   332   2      2.0051114862501778      22.174993153206021      26.329186902079385
   333   3       2.095445810074394      22.239886428260217      24.362381465745237
   334   3   -0.027428299389483348      22.406956741524837      26.221058178974346
   335   3      2.0035641685009939      20.296623532725437      26.549652174130568
   336   4   -0.048737978708094681      20.107918938617189      28.664005613253348
   337   1      1.9999840440706289      22.231705270091883       30.37556237194875
   338   3      1.9312079448499713      22.519577972070998      28.282895566673751
   339   3    -0.10830224693808005      22.228678697646707      30.155477993868974
   340   3       1.871989858167673      20.167225230350208      30.212206655922653
   341   4     0.25798475428297307      20.196866646790195      32.379809874407961
   342   2      2.1227523014186582      22.260091442198675      34.296455049335293
   343   3      1.8455210712894006      22.080384176119132      32.419161543159156
   344   3   -0.083008835999545366      22.379829146041789      34.411432112614762
   345   3      1.8195951811110145      20.221060287896403      34.409502512247357
   346   4    -0.10307312469107763      20.096483859772398      36.726808583285006
   347   2      2.0493831030753644       22.26289630983738      38.295033976565271
   348   3      2.0007500232942954      22.305025480173782      36.397760824195977
   349   3   -0.010713807584981472       22.31195275258289      38.338864518304717
   350   3       1.859832810117958      20.256312119817064      38.409076271232813
   351   4    -0.16464128892337254      20.165439843610475      40.545039408426355
   352   2      2.0196149376188548      22.201465698942499      42.318591968062051
   353   3      1.9061162747051428      22.236048514379842      40.452449769196328
   354   3     0.11412401229359423      22.285264341153223      42.766668197016926
   355   3      1.9354974476656386       20.27608318359421      42.575307785676621
   356   4     0.19902895062081635      20.380750805940551       44.37966746841628
   357   2      2.0765764569760474      22.362677058535859      46.620352589613944
   358   3      2.0812637515335175      22.060742503799098       44.67224497234789
   359   3    0.061909843057007759      22.201988684353797      46.637694229064081