(written by ASE)

8640 atoms
4 atom types

0.0      48.599999999999994  xlo xhi
0.0      48.599999999999994  ylo yhi
0.0      48.599999999999994  zlo zhi

Atoms # atomic

     1   4     0.22282877042183361    -0.12061747092988641     0.27006813442308436
     2   1      2.0155196087240617      2.0412468776472683      2.0990134502207538
     3   3      2.1306040704108118      2.0054200287622868    -0.13087765284477151
     4   3   -0.032423276748135582      1.9557410764986809      1.7757318199839496
     5   3      2.1187177721070438   -0.031374209677099196      2.0076273020678652
     6   4     0.19088701064018473    -0.25225651886110173      4.1952319694909832
     7   2      1.8934307005032855      1.9960083563746374      6.1318661963544114
     8   3      2.0933878417524117      2.1811239737152244       4.150486922672135
     9   3    0.037133142076614084      2.1317277500739378      6.0976725268028069
    10   3      2.0343948512621406    0.051937347680921959       5.877881767232803
    11   4   -0.015987057947098711    -0.36294916464845822      8.1398538546743229
    12   2      1.9460693782819685      2.0459993516661767      10.183167080369033
    13   3      2.1839708092075329      1.8753562193390574      8.0812977691787218
    14   3    0.046621224255040651      1.8100195930796601      10.067700479722943
    15   3      2.3478302454700368    0.098437689044617804      10.225317072240044
    16   4    0.095741919556772317    -0.28085366160678704      12.214695423720071
    17   2      2.0580356129134305      2.0501709212310035      14.348708926368223
    18   3      2.0270417504178728      2.1489917225719606       12.07449200534297
    19   3   -0.064138418012001125      2.0076217136499208      14.197551203652141
    20   3       1.998549179516385     0.10138849061955832      13.986166046259598
    21   4    0.040487122448033361    -0.34728296271339709      16.217617631501508
    22   1      1.9785562289129912      2.0592295707889017      18.278662583856281
    23   3      2.0555327202364087      1.9738298135670536      16.212332003256645
    24   3   -0.082109313847613871      1.9332718542371137      18.436321099898333
    25   3      2.2570747866020158   0.0026123858945788512      18.321286824040172
    26   4    -0.12497269289102374   0.0043390429776209473      19.987852487829983
    27   2      1.8676205756989763      2.0574326946596524      22.261867804749922
    28   3      2.2287302060374845       2.023402008470383      20.368298501251157
    29   3    0.016296935272545277      2.2389105958015896      22.240537731835641
    30   3      2.0591626088584114     0.14912727873482898      22.492772095954059
    31   4   -0.071871005578083097    -0.33702944248665861      24.362214712680881
    32   2      1.9139850060648294      2.0127864431948206      26.252666792973326
    33   3      1.9841838707614454      2.2385777476401647      24.364461142365219
    34   3     0.02302759353707284      2.0943421605243286      26.425026286205966
    35   3      2.0801934649960261     0.13679989222826164      26.247401142321692
    36   4    -0.14362695030886397    -0.36571339228799871      28.275482273011278
    37   2      1.9320207072073157       2.003973257864986      30.235849826752695
    38   3      2.1241072685282796      2.0340558586110702      28.329949172256505
    39   3    0.059800424988287151       2.184141233248273      30.399643225269084
    40   3      2.0193291518412981    0.096743790754776265      30.473492764513651
    41   4    -0.35951154162822579   -0.052406350393681286      32.469662770136146
    42   2      1.9624896040622719      1.9251261896291572      34.400318049460431
    43   3      2.0509028644555438      2.1539291308867781      32.478779665460522
    44   3    0.082718767440880622      1.9137171730158058      34.439522255079694
    45   3      2.2639113153744752     0.05568125749024045      34.422543856135739
    46   4    -0.35651288915856766     -0.1913405480497111      36.337131537390057
    47   2      1.9537993955390056      1.9198412916987038      38.394187266775745
    48   3      2.0763854172458274      2.0777799715759553      36.442089512659884
    49   3    0.075672012559537469      2.1388978792352407      38.523796690133388
    50   3      2.0720182839424015    0.067151091012314382      38.506145686701814
    51   4   -0.095584228640443317    -0.24546684716177911      40.540275907799007
    52   2       2.053858419858221      2.0425051851700706      42.487379421107875
    53   3      2.0984041866318957      2.1774458896372995      40.473092020770061
    54   3    0.033302591699168542      2.1707171785957233      42.413219611771929
    55   3      2.0446783222027727     0.16729959609419032      42.557477866326138
    56   4     0.10041156458718577    -0.34542495969472287      44.507562912313794
    57   2      2.0381909745298854      1.9024203438780598       46.53978572941778
    58   3      1.9608581920380814      2.3031489655816726       44.47076849712802
    59   3     0.10419439430999523      2.2205105608851023      46.541462589875565
    60   3      2.0480419486381027    0.064723685226305588        46.3478992753207
    61   4  -0.0060839455664975835      3.6823286537213171     0.08613724722643161
    62   2      2.0636024338449279      5.9879354100657025      2.1089684976492467
    63   3      2.0016042983885511      6.3461169279547853    -0.10135287438507237
    64   3    0.035534771353463251      6.2513111044299174      1.9567928990043897
    65   3      1.9941771830958381       4.121726336267078      1.7394772734080739
    66   4    -0.16566035428923753      3.9752879152206089      4.3881924798650962
    67   1      2.0013749475849241      6.0595406387588895      6.1221402019251325
    68   3      2.1218809098868592      5.9431921612963858      3.9933119221617499
    69   3    -0.05427474367103275      6.0273253989844253      5.9327095563095797
    70   3      2.2127158803992333      3.9696088006351142      6.1750651198151374
    71   4    -0.17365250855979233      4.2571672761678947      8.2922301330128452
    72   2       1.919272760008004      6.2048641069521109      10.151096966977196
    73   3      2.1452024608132492      6.1242200873834287      8.1870571816123281
    74   3    0.034072093707019781      6.1321015385660012      10.102971858863738
    75   3      1.8676686442765575      3.9914548428255068      9.8915049120429899
    76   4   -0.056012662305501067      4.3251674196381025      12.217573158528234
    77   1      1.9819379513862272      6.0821733335641248      14.198178121409436
    78   3      2.0117405362948642      5.8064112476907299      12.058035195046733
    79   3    -0.10587426934521392      6.0002355872327273      14.136807476261819
    80   3      1.9492154619980517      3.9942899443830555      14.211492466803215
    81   4    -0.22317728320818772      4.3397432001205392      16.133095576088031
    82   2      1.8380522769162697      6.0924450911420829      18.287606085026059
    83   3      2.0920983748597681      6.1236499731863372      16.293249772014114
    84   3   -0.011643020672416279      6.1787214942915787       18.32859959146727
    85   3       2.031435121123224      4.1391383196265243      18.248021018453965
    86   4    -0.34264116112067189      3.9404873768369759      20.108531504431031
    87   1      1.9958893515524914       6.077135364197483      22.254535138567107
    88   3      2.2675276369078206      6.1034754088501302      20.198516020784385
    89   3   -0.053030504304158801      6.1191926028054482      22.293406569656376
    90   3      2.3118097926049077       3.999683556500476      22.283821862170331
    91   4     -0.3904472938771032      3.9768663956864856      24.255012651582053
    92   2      1.9451793028020721      6.0728419023074789       26.30571013301169
    93   3      2.0754138451451638      6.0488681501277171       24.38921652749551
    94   3    0.035077913420065436      6.2263113880939471      26.473588599574484
    95   3      1.9908885092158497      4.0916413701142993      26.513403215659874
    96   4    -0.36449486113018142      4.0288917147563827      28.172754044397688
    97   1      1.9468588699524718      6.1010029315894485      30.390831600250895
    98   3      2.1321015198042566      6.2016020709011501      28.349194834398229
    99   3    -0.10811092184149208      6.2624189084121662      30.404911498836217
   100   3      2.2397479628214376      4.0229269872491402      30.350531554758678
   101   4    -0.31493750510289753      3.8330059435739137      32.335275623491505
   102   2      2.0087062428924445      5.9259891984369872      34.408018795981448
   103   3      2.1045891283828824      6.1281470787347487      32.503718785618915
   104   3    0.087529696706348498      6.3135397408201976      34.406278492475025
   105   3      1.9393327331881471      4.0611244621273155      34.543696452988328
   106   4    -0.38975438833406273      3.9545917563350748      36.341722942077524
   107   2      1.9333045510212774      5.9986826610040049      38.456763693601964
   108   3      1.9607190894136541      6.3165766314083367      36.461766106820093
   109   3    0.041289373785043319      6.2707440705346542      38.537072575110059
   110   3      1.9876448564290718      4.1397943454486921      38.364101346057538
   111   4    -0.17099693199846464      3.8426946077750874      40.515394900874185
   112   2      1.9704016413285652      6.0840120598491758      42.587601949385672
   113   3      2.1931943817150308      6.1842283637309121      40.360961331887871
   114   3    0.096603701443641679      6.1907757254354276      42.303618196554382
   115   3      2.0753303202203468      4.1729745036864863      42.353185975255336
   116   4   -0.091955431701540108      3.9094627928611074      44.737021013204995
   117   2      2.0571648919860892      6.0507372386959117      46.621357956550618
   118   3      2.0536016591219721      6.1040820857841007      44.469750094916478
   119   3    0.079272746960141985      6.2110520703313608      46.391631741223087
   120   3      2.0418035111167065      4.1743795806352013      46.617909953262888
   121   4     0.14049575464025119      8.1307965307437033       0.301088658068697
   122   1      1.9893644265869626      10.158494595741294       2.056692130094977
   123   3      2.0200682808763664       9.937877400540069   -0.036946534672153468
   124   3   -0.069550434574373668      10.171291070319384      1.9461144768686138
   125   3      2.1311169624043771      8.0568304570630094      2.0844284657900261
   126   4   -0.087009631781971478      7.9601506563817113      4.4195044445260274
   127   2      2.0169753395186687      10.190318085841241      6.0064055524471769
   128   3      2.2752119500177068      10.242904264207406      4.1041268177528032
   129   3    0.053487586600717826      10.085733886419028      5.9798476504475397
   130   3      2.0621377258794675      8.1290480497337931      5.9008302455896446
   131   4    0.010121597328137708      8.3680968252691734      7.9874615745007471
   132   1      2.0233855980436934      10.147626302800276        10.1568612317143
   133   3      1.8527105667979955      9.8956040280773188      8.0631687151710612
   134   3    -0.10068175453906202      9.8974905443629009      10.151547274568268
   135   3      2.1513523904441385      8.0524459512012214      10.312929415150517
   136   4     0.24883161244999299      8.3790658338104453      12.233013940999523
   137   2      2.1366433651303005      10.176778006435693      14.225363712594943
   138   3      1.7877858570221949      10.214239363335322      12.230672376771228
   139   3    -0.11044770578556334      9.9220161969405591      14.248566170836895
   140   3      2.0878900754662637      8.1431221077570193      13.962965014792587
   141   4   -0.029643238665219198      8.4300177391512552      16.283038701778317
   142   1      2.0286253020336535      10.172293575090018      18.217946179650472
   143   3      1.9781778954379936      9.8947269164238811      16.139990278560369
   144   3   -0.055156534125125528      9.9317477848184392      18.222952356162228
   145   3      2.2501668301705848      8.0430824152276656      18.268300539923295
   146   4    -0.28518096296758078       8.335067264384989      20.093162285579403
   147   2       1.962633629209793      10.092259982185816      22.215393237856933
   148   3      2.0922368301141039      10.033670066144049      20.340698132623931
   149   3    0.092644848327714996      10.022614817772537      22.402527196657669
   150   3       2.176293687142612      8.1621478486522037       22.41302624408771
   151   4    -0.19139655263455818      8.0894608939370283      24.122506650253811
   152   2      1.9605142446956665      10.145612390430429      26.277023516838735
   153   3      2.0693192598936285      10.131626309860353       24.39683105308308
   154   3     0.06484731346478588      9.9998105442832923        26.4587175996258
   155   3      2.1501075156766158      8.1143697092741451      26.350286280961129
   156   4    -0.15549073702807245      7.9479486158544672      28.280625528918396
   157   2      1.8928217777614746      10.121198623759405      30.303680061674996
   158   3      2.1425007752345722      9.9598796546767723      28.409794250573313
   159   3    0.040716518998240553      10.210950113096176      30.371481640787859
   160   3      2.0792594556212358      8.2193283751245225      30.664666066857276
   161   4    -0.08478412241423551       7.824512924188034      32.371046277034161
   162   2      1.9298266919249012      10.116821671215202      34.400952181900529
   163   3      2.0222579474473159      10.334847681912292      32.460487926211265
   164   3    0.034026523138330045      10.212172388900589      34.496520932558163
   165   3      2.1253532713355465      8.2333805040213779       34.35511608256332
   166   4    -0.27814343361258392      7.8811554555761729      36.379713287436722
   167   2      1.9841768252797234      10.032037096474481       38.44413732419315
   168   3      2.2276515105495704      10.197551817649808       36.36802824431458
   169   3    0.096199984143651815      10.151127301817784      38.224159816962256
   170   3      2.1875425683202292      8.1557905048875767      38.441572537763356
   171   4  -0.0037604656385095431      8.0396289135376069      40.713390223409128
   172   1      2.0634789224080925      10.117991948096947      42.507600412650405
   173   3      2.0176066267906805      10.264767562086558      40.343194330268176
   174   3   -0.022889384216078942      10.140814032921584      42.404350029122938
   175   3      2.1053811728580003      8.0549087621754296      42.267906768569041
   176   4    0.030165584984384701      8.1950374873127299      44.902646762464016
   177   2      2.0943303995065325      10.182377833556464      46.696451636348868
   178   3      2.0595003919871022      10.350227417361213      44.543415331503255
   179   3    0.077191638089137288      10.111149690947752       46.45321052027591
   180   3      2.0626161861384809      8.1437961822430438       46.31976045574168
   181   4     -0.2466009443861136      11.959728432787301    0.069369944842621337
   182   2      1.8514399547294365      14.197341570463745      2.0188575725074749
   183   3      2.1453223843255165      14.277422767026595    0.089160046293125905
   184   3   -0.022404428927485693      14.243157830452763       2.106269419750832
   185   3      2.2066295345786324      12.232002858605973      1.9887294841769569
   186   4     -0.3307313448484539      12.054078568286785      4.1001073097364555
   187   1      1.9985445504757762      14.168433377309876      6.0994436129756648
   188   3      2.1808864570864541       14.12534860275716      4.0073756238047977
   189   3   -0.077258334791475522      14.142401833782611      5.9289351000775827
   190   3      2.0454019703726818      12.095464820462531      6.3342231281922095
   191   4     0.30885452381574013      12.174806876609944      8.1603393526675934
   192   2      2.2170534100121646      14.163933563827594      10.098084238527585
   193   3      1.7631331372426933      14.219737484354134      8.1827843710878021
   194   3    -0.11162277408115603       14.33629947038756      10.235911673693103
   195   3      1.7718623280202594       12.20080108452796      10.027082993642267
   196   4     0.35651154196382062      12.242923605795019       12.14394755630437
   197   1      2.0409394172193913      14.203447346503626       14.13661934310236
   198   3      2.0266079680065561      14.025440084875417      12.068012331232683
   199   3   -0.096438740851236715      14.141834871390373      14.040628311069273
   200   3       1.803369399766243      12.072118722840594      14.253740035597602
   201   4   -0.032387900820069045       12.44115819347387      16.035846373902821
   202   2      2.0076510222495063      14.194612060703999      18.088541614712383
   203   3      1.9129579962018273      14.104274461610506      16.222763331686927
   204   3    0.052912049267298499      14.227674276070113      18.429667959494292
   205   3      1.9287815431030615      12.224640147823367      18.392718357440483
   206   4   -0.057424470815592488      12.217231224189378      19.899835454986913
   207   2      2.0863812462878113      14.056443593662939      22.249906711158605
   208   3      2.0496571151211582      14.220898664085581      20.365954539272021
   209   3    0.016957671641848648      14.236929559943954       22.37036347207987
   210   3       2.005053002459777      12.125458039665629      22.306582601220331
   211   4    -0.16762713444990693      12.316757386479972      24.319233806790365
   212   2       1.989947642377295      14.307927499601233      26.350725492034151
   213   3      1.9961145776227316      14.013891849642887      24.334407965144656
   214   3    0.069408653880862245      14.114079815374698       26.36086432968656
   215   3      1.9971421319649068      12.050730496476389      26.510178410629656
   216   4    -0.20814726926951732       12.22015980655747      28.168561174016009
   217   1      2.0556820887525165      14.142275044555058      30.340146586492963
   218   3      2.1689296686864026      14.191899650813685      28.288233216240908
   219   3   -0.014487721288542792      14.205927565698143      30.434785275819479
   220   3      2.2610989600882712      12.054757114121433       30.34543809831511
   221   4    -0.25232466724546432      12.062420690534571      32.384613668354604
   222   2      1.8912638374133273      14.133835418783034      34.436574640006441
   223   3      2.1970389675087776       14.15795360304565      32.476124569880561
   224   3    0.047345323518267118      14.258200353439703      34.256848536295735
   225   3      2.0708412768816773      12.230958874143344      34.503551784795469
   226   4    -0.29076757745984499      12.036199461824987      36.544729074531148
   227   2      2.0407779245624234      14.156050911273505      38.462948286598326
   228   3      1.9859546444200147      14.418434742286777      36.377011636855038
   229   3    0.085276566139915161      14.424808857271666       38.47905775071748
   230   3      1.9575020794848519      12.264252146692247       38.29495597263648
   231   4    0.041431781962475801      12.084380538352113      40.730743787195046
   232   2      1.9956372111759295      14.167714913771391      42.620500219524182
   233   3      2.1479028610023088      14.267244867312373      40.352239625289222
   234   3    0.093775767100433921      14.193332257319918      42.288140131451932
   235   3        2.09831934555358      12.245164795418098       42.27545408135245
   236   4     0.22466196393114421      11.894215077703787      44.741334478379265
   237   1      2.0757897584158966      14.148863465860311      46.625953839857502
   238   3      2.0273197327354926      14.076595638862512      44.480123358235069
   239   3   -0.015912489499365478      14.398993209222049      46.561970461307276
   240   3       1.979094647429924      12.099369440398144      46.624392354400555
   241   4    0.064683152586915427       16.35159090067911    -0.13151218950974999
   242   1      2.0943023540134731      18.234417755580303      2.0144153260329878
   243   3      2.1220429732043553        17.9531290283342   -0.064390793770355725
   244   3    0.023997141569108878      18.171102854182884      2.0642013059656841
   245   3      2.1803933854625144      16.136328641159757      2.1417161965357727
   246   4   -0.056142508500520209      16.097140563248566      4.3163778110784774
   247   2      2.1797322054689516      18.127403791627021      6.0000660733566242
   248   3      2.1161382213940003      18.386108505181898      4.1117793597569001
   249   3    0.083546617128514383      18.439672211121685       6.016640873986316
   250   3      1.8778451121448514      16.231980185448894      5.9928978520438418
   251   4     0.36628297495917794      16.271434269938347      8.2045094552252937
   252   1      2.1168365529694566      18.207891173183995      10.146000434724479
   253   3      1.9213038891018175      18.147533375687956      8.0728484700454199
   254   3   -0.040262202523095543      18.063178361348804      10.133199550671359
   255   3      1.9994897396271403      16.113610802006082      10.182727948906765
   256   4     0.35562425356198951      16.271495774978497      12.123909768034116
   257   2      2.1863658573189504      18.189073466717424      14.163179890244901
   258   3      1.9028886600429056      18.218376011581579      12.206659655100136
   259   3   0.0095116565764579268      18.278979746513638      14.200160878797957
   260   3      1.9093970659280617      16.257638370810739       14.16474427997664
   261   4    0.072062776190284297      16.483050545443913      15.882572267183569
   262   1      2.0474332415900647      18.216549785970841      18.211098433727212
   263   3       1.896932743158291        18.2508817709009      16.145498439943484
   264   3   -0.073505624233557526      18.188404728927669      18.411379107219094
   265   3      2.0673087630485525      16.125408767263703      18.356812856384423
   266   4    0.083700571676977531      16.166994710622173         19.915915977689
   267   2      2.0350621533035773      18.037222362162709      22.292891437225695
   268   3      2.0043846965745602      18.229995884056226      20.339826488460584
   269   3    0.060652249716952968      18.232402921854394      22.348494611642106
   270   3      2.0540050424746679      16.137292724816298      22.423763298832409
   271   4    -0.15299550101933393      16.106904349596615      24.182123575022423
   272   1      2.0111426323190602      18.235161658168924      26.308515386171212
   273   3      2.0779776916184534      18.409370493596544      24.253116578799581
   274   3    -0.03909212126164386      18.119845645720645      26.427938801736186
   275   3      2.2000566333935674      16.160428910517933      26.263139193326626
   276   4     0.12243407776815719      16.415149643711665      28.551823250380597
   277   2      2.1661730619824424      18.249130296515141      30.343787749491714
   278   3      2.0492876001255622      17.977353185304835      28.416951063600841
   279   3  -0.0030231085525091561      18.151213104453642      30.200350675903827
   280   3      1.9940210075526357      16.240281154875976      30.599943270102298
   281   4     0.21770086666633942      16.195442018890787      32.277985183005249
   282   2      2.1048426027975093      18.208780300523294      34.470501455152707
   283   3      1.8758173343534801      18.360262210722517      32.362849801068563
   284   3   -0.036395194680031211      18.211780181112488      34.304065773328809
   285   3      2.0048686474223416      16.280113284875043      34.188101725295517
   286   4     -0.1626123578702782      16.124775459485839      36.718253497486124
   287   2      2.0445553180118976      18.223357400460756      38.588430349921019
   288   3      1.9684251429477084      18.190737547552878      36.340632906189171
   289   3    0.076392577320325228      18.170112751811878      38.331858464847585
   290   3      2.1581125096184075      16.256969856116108      38.372875025286042
   291   4  -0.0031096009830568041      16.036293632587256      40.660351606626875
   292   1      2.0538292762671584      18.201649432931216      42.564912281406805
   293   3      2.0969405010227566      18.188298588967207      40.443063647590726
   294   3   -0.012121561760554466      18.075561639567134      42.456299672380112
   295   3      2.0975955101126655      16.104635483552695      42.428429597197614
   296   4     0.29482449802474142      16.377805444832255      44.791655006589018
   297   2      2.1211153296962513      18.281580015517918       46.60882609672236
   298   3      1.9244543001019592      18.237258542879321      44.636069246549454
   299   3     0.10232586553187061      17.972465873318072      46.678745822194401
   300   3      2.1723768350225852      16.211801749489744      46.392534020761723
   301   4   0.0030959800238133787       20.36530960222731    -0.17416092979774675
   302   2      2.1006148595901304      22.146712525897872      2.1054903315125832
   303   3       1.978056846220847       22.30126088245682   -0.015847035257155258
   304   3    0.010883282684623871      22.261972158452775      2.0875107572593725
   305   3      2.0007371515881989      20.281829642220597      1.8862792385221283
   306   4     0.23212847565195979      20.046705047890576      4.1895547515471634
   307   1      2.0397116671721425        22.2927302970702       6.095240267547597
   308   3      2.1371457744137587      22.159973885061355      3.9939049309885122
   309   3   -0.034799487077899614      22.104535459056738      6.0639822352887141
   310   3      2.1738410674451147      20.207389749928559      6.2707113437131712
   311   4     0.34783697530847602      20.005078861851878      7.9033070483998715
   312   2      2.0136654176473252      22.136870385152481      10.166183722082346
   313   3      2.0908368874250556      22.381852781079218      8.1797545680690629
   314   3    0.058901964605040068      22.550319543309492      10.109480305897963
   315   3      1.8970296501440305       20.26304790496706      10.159251047609672
   316   4     0.29494784139107888      20.028159584823381      12.300021393967663
   317   1      2.0527071795112142      22.269434797362454      14.222860010109063
   318   3      1.9936280668874464      22.430465489391324       12.12273077484754
   319   3   -0.055505242437138974      22.406146512907636      14.256134046410805
   320   3      1.8976500721595642      20.198780208952858      14.115060020423629
   321   4     0.21771146864700353      20.099891563466024      15.952548352417654
   322   2      2.1104062959075671       22.18765427355132      18.202606302614299
   323   3      1.8940129348713397      22.151099036382945      16.300056944803845
   324   3   -0.047893232193697365      22.436706969679317      18.332743488976686
   325   3      1.8689213350970997      20.314107776498687       18.47404148935588
   326   4     0.13712235758335528      19.906470164084165      20.216517084441374
   327   1      2.0283974872189123      22.272935997640559      22.249061462875151
   328   3      2.0105492748907237      22.594547898366237      20.196919173224487
   329   3   -0.060921122578007761      22.450127355240419      22.415917989235204
   330   3      1.9789834705545739      20.224832472969421      22.188949349769981
   331   4     0.16436999436705635      20.102459112643601      23.962610269530849
   332   2      2.0063382959573475      22.174873760178862      26.328854995064738
   333   3       2.094482699615861      22.239164249487484      24.362519210786377
   334   3   -0.027167665213026482      22.407546200209257      26.221836297912958
   335   3      2.0026888303360324      20.296844290722291      26.552174994989361
   336   4   -0.043737625940638659       20.10673584757221      28.661955907717154
   337   1      2.0016559078279315      22.231849257740478      30.374337669784815
   338   3      1.9305374966316251      22.519930655034472      28.283109587556925
   339   3    -0.10816819103841173      22.229942672089251      30.157473695167411
   340   3       1.873185271417962       20.16678569923398      30.210810456619956
   341   4     0.26084559825639309      20.192951535089996       32.37652739409009
   342   2      2.1219994780481466      22.260827959869253      34.295499985117026
   343   3      1.8440406549364168      22.079868184781866      32.418145557097198
   344   3   -0.082394394071402782      22.383710304550988      34.410571201657383
   345   3      1.8186812057443651      20.221149640195826      34.409471792761387
   346   4    -0.10433364234505312      20.096323427240151       36.72832114440903
   347   2      2.0488968369310823      22.261209325708052       38.29394157165973
   348   3      1.9995496062763631      22.309118526032762      36.396844277035839
   349   3   -0.011874827653450822      22.306772635341215      38.340654499282891
   350   3      1.8650418428903153      20.257149983336003      38.405290848798266
   351   4    -0.16002865557829002      20.166078046864477      40.551710179286886
   352   2       2.019505300698524      22.201928508176177      42.318142065244231
   353   3      1.9079528523254832      22.237653215942938      40.452112233212851
   354   3     0.11420295010275615      22.287256355607237      42.762407193800982
   355   3      1.9288609307987923      20.275486015710275      42.570165031371502
   356   4     0.20049427469235068      20.377024013341419      44.381062765436262
   357   2      2.0778603006492733      22.361900754620049      46.620102778554276
   358   3      2.0772277161296211      22.057459023450036      44.671989560788958
   359   3    0.060794400581904287      22.202070431808014      46.642085731522982