(written by ASE)

8640 atoms
4 atom types

0.0      48.599999999999994  xlo xhi
0.0      48.599999999999994  ylo yhi
0.0      48.599999999999994  zlo zhi

Atoms # atomic

     1   4     0.22992034427497138    -0.12182084550213017     0.25185385727981868
     2   1      2.0182516916339015      2.0350208055915893      2.0974754332961321
     3   3      2.1302520474672537      2.0068113527277225    -0.13433115027440801
     4   3   -0.030204676410460811      1.9481801851111218      1.7725414470665075
     5   3      2.1350401612316916   -0.036926581532329132      1.9930333917013885
     6   4     0.17145137362435628    -0.25886870678595286      4.2153239502604922
     7   2      1.8956425448307455      1.9943390906839364      6.1316352557092646
     8   3      2.0977924779599375      2.1754631539811884      4.1487656877988366
     9   3    0.038574674991382736      2.1270994265540919      6.0924530418143421
    10   3      2.0327526610547646    0.049276652057914899      5.8792784538589595
    11   4   -0.016945749416397177    -0.36285105245701937      8.1386353213313267
    12   2      1.9473583895239017      2.0447445258532273      10.183581087788927
    13   3      2.1812882164948659      1.8732025129089103      8.0811969098550378
    14   3    0.047182329984310767      1.8087561667698195      10.071681865315695
    15   3      2.3500811933173882    0.097649385009360865      10.226513412907758
    16   4    0.095653096247940508    -0.28066310176721065      12.215558963125712
    17   2       2.058327642432634      2.0501647336224118       14.34930361963273
    18   3      2.0294908698704925      2.1481683625195962      12.075039071448177
    19   3   -0.063661814025678276      2.0080066639251166       14.19624007073312
    20   3       1.999063433796781     0.10157014898928975      13.987409988885643
    21   4    0.040640846855232206     -0.3472679766280905       16.21897294652819
    22   1      1.9784257271298749      2.0591849089243892      18.279493350372796
    23   3      2.0550619530500258      1.9752091476759004      16.213051405057119
    24   3   -0.082300429799249286      1.9329436337299286      18.437218923514642
    25   3      2.2573237593704056   0.0026352275486177077      18.321560189583952
    26   4    -0.12528039006613825   0.0044052016987596145      19.988045739704127
    27   2       1.867429003785271      2.0570021154531606      22.262213428180281
    28   3      2.2295154690075716       2.023359866369812      20.368898189513057
    29   3    0.016395642553584604        2.23868726105664      22.239994222825239
    30   3      2.0593071022094009     0.14903007040630012      22.492500461817663
    31   4   -0.073853428060778589    -0.33784475771004924      24.362330880480201
    32   2      1.9142301738757075      2.0121169991246273      26.253053641428533
    33   3      1.9834740482872075      2.2384341157393837      24.364513185704869
    34   3    0.023404969827809718      2.0944389799124097      26.426020379376364
    35   3      2.0802931200024259      0.1364591366125448      26.248724109937957
    36   4    -0.14393050659530618    -0.36576089269720868      28.274465769594887
    37   2      1.9321959391267782      2.0040380605282668      30.235998713508476
    38   3      2.1245957166889822      2.0347803440872489      28.330153991324053
    39   3    0.059771710969649373      2.1856212736613823      30.398712078876574
    40   3       2.018653299619956    0.096944336221785221      30.473411771834972
    41   4     -0.3592988293550215   -0.051379254778007026      32.472094990402773
    42   2      1.9623272765526394      1.9256345052192925      34.399919059636517
    43   3      2.0501319302178027      2.1555103044449111      32.478598873194663
    44   3    0.082371019131550441      1.9128851253684545      34.438518127686024
    45   3      2.2636811913335855    0.056344941940560125      34.421119589850157
    46   4    -0.35519150429574525    -0.19217812754511623      36.336820017173359
    47   2      1.9539860876336281      1.9195199502628171      38.393681498174516
    48   3      2.0755817433471666      2.0763221211089329        36.4422923572032
    49   3     0.07596152761724162      2.1402216793804829      38.525694293506639
    50   3      2.0700015961839582    0.066943933151778337      38.507686789493334
    51   4   -0.095278654079791178    -0.24813114657957838      40.537899332207779
    52   2      2.0546858240390655       2.041789911359972      42.484133696799397
    53   3      2.0984851579157189      2.1774067774818984      40.474166477022692
    54   3    0.032648659789829372      2.1720869119245738      42.414571469634531
    55   3      2.0424196076065626     0.16708202261288793      42.556403434944244
    56   4    0.097382521336867103    -0.34533480107475184      44.503985179123681
    57   2      2.0393302692179289      1.9008067993047268      46.535492783748325
    58   3        1.95903841055088      2.3016699966845384      44.470980483981648
    59   3     0.10412948739423099      2.2190746414849452      46.541180420758366
    60   3       2.045108709475485    0.062758918405948813      46.349821490175657
    61   4 -0.00033858925439721047      3.6776788777485043    0.085584404376170181
    62   2      2.0671974251641663      5.9852780517895905       2.108328272875438
    63   3       2.001470823324218      6.3446184690898004    -0.10146241389929182
    64   3    0.037023774382585875      6.2488079232356775      1.9593030546709391
    65   3      1.9934863488561507      4.1194400008797976      1.7398844495026546
    66   4    -0.16563748561859626      3.9663190673276203      4.3833834739389088
    67   1      2.0028024590278437      6.0573278730081439      6.1207697983149627
    68   3      2.1244403442912212      5.9425956858222051      3.9923553056518783
    69   3   -0.053092709146200845      6.0269830300401033      5.9319009209428462
    70   3       2.215224650671773      3.9670079833411349       6.172473982719926
    71   4    -0.17151296220914231      4.2566405705143069      8.2944435860313721
    72   2      1.9204895648938716      6.2035843053093398      10.150077932080038
    73   3      2.1465975543298939      6.1216495464647931      8.1859811810698719
    74   3    0.034843669159278647      6.1309700699378507      10.098479147638104
    75   3      1.8671441884406415      3.9899384256349872      9.8913580410664075
    76   4   -0.050323115223430963      4.3228619513455886      12.223644230557911
    77   1      1.9829512976424524      6.0822911019528467      14.198835393503025
    78   3      2.0105110325781803      5.8055647123963317      12.057302136123749
    79   3    -0.10494978559828576       5.998505399715671      14.135987552213887
    80   3      1.9477727828081555      3.9940707138023321      14.209105340479471
    81   4      -0.223186668831761      4.3393996791655747      16.134766091523254
    82   2      1.8381202733248712      6.0926891835507728      18.287463730899276
    83   3      2.0923589612903934      6.1237538984564983       16.29341688993166
    84   3   -0.011485724673015415      6.1784974184463604      18.328386224980807
    85   3      2.0316171392716527        4.13920690834063       18.24871345570153
    86   4    -0.34251992051923003      3.9407864603604561      20.107320695488188
    87   1      1.9962709646436296      6.0774635176632925      22.254256149616765
    88   3      2.2679264759045306       6.104437920914255       20.19845877556628
    89   3    -0.05269879948820843       6.120672221970505      22.293538951400965
    90   3      2.3129357265158292      3.9996640372303043      22.283246012827895
    91   4    -0.39005150383293319      3.9760439161984271      24.255601770617577
    92   2      1.9448602119306506      6.0720952084339306      26.305687415973953
    93   3      2.0769337719364929      6.0495675970067628      24.388764670751474
    94   3    0.034889904587359424      6.2279750831728888      26.470391844401544
    95   3      1.9906849549667662      4.0922234965925837      26.513457513592481
    96   4    -0.36458313520999153      4.0270083824321308      28.173999749955598
    97   1       1.946942858992865      6.1014189095610005      30.390925417856494
    98   3      2.1277410460535724      6.2054964308570151      28.348705656593935
    99   3     -0.1081136895074549      6.2624293624690903      30.405998931942239
   100   3      2.2403094277475453      4.0238560433293245      30.349644750706513
   101   4    -0.31517313798844326       3.833799696523756      32.335184563725804
   102   2        2.00892533420412      5.9258650988669084      34.408679689538246
   103   3       2.105673836249109      6.1265824623009753      32.504411664114699
   104   3    0.087739483137503779      6.3126850678980535       34.40743212086511
   105   3      1.9392688857835019      4.0608610858193748      34.545654314191211
   106   4     -0.3903158054024502      3.9560763791444553      36.341965660120763
   107   2      1.9328449090827486      5.9981005076927216      38.458167883560193
   108   3      1.9616430456058647      6.3170338082203807      36.463182289134707
   109   3    0.040445778682926002      6.2701087110067464      38.536832811468472
   110   3      1.9888499201948624      4.1395481485369734      38.365040892631441
   111   4    -0.17393514844446664      3.8431599600385087      40.515915388536094
   112   2      1.9695509778475142      6.0831109284538272      42.588095182381004
   113   3      2.1902368051969177      6.1833841615283092      40.363107947485595
   114   3    0.095516187009842976      6.1919115266001254      42.306026719344729
   115   3       2.074759271639921       4.172979530452734       42.35669254614735
   116   4   -0.088115421007714731      3.9049300037278321      44.735660799118492
   117   2       2.057225640141608      6.0505368419404082      46.620160850220842
   118   3      2.0533082344384708      6.1058458751669384       44.47041951124239
   119   3    0.079436494828214715      6.2111295391242747      46.391713397686424
   120   3      2.0433539737068092      4.1744695171664121      46.614751974534016
   121   4     0.14404256674306787      8.1271835943513757     0.29979287217852385
   122   1      1.9886741938567765      10.158866647932925      2.0565976806273398
   123   3      2.0188179710653777      9.9401314557893041   -0.035734649102391651
   124   3   -0.070988427255289629      10.174300185327159      1.9474171006806726
   125   3       2.131470860259014      8.0560005707410554      2.0820582636184435
   126   4      -0.085452806790663      7.9591651473063827      4.4187036250528742
   127   2      2.0175705691551431      10.189489506054786      6.0053307506835134
   128   3      2.2760895062543107      10.240941132134669      4.1033132257265974
   129   3    0.054092612613415851      10.082258810659653      5.9799612618878157
   130   3       2.063552398040978      8.1279391086663786      5.9005668045625921
   131   4    0.014027543624906753      8.3686494193026597      7.9871653210193099
   132   1      2.0244113233511865      10.146565332560504      10.155561528926597
   133   3      1.8542842506281176      9.8949980163099536      8.0628781396722644
   134   3    -0.10179892438968623      9.8904982676293063      10.146059299289634
   135   3      2.1518480800892914      8.0510296831054848      10.311595930262722
   136   4      0.2508554828765997        8.37731212953409      12.233450465494144
   137   2      2.1359264007837515      10.176639918985076      14.224778117283769
   138   3      1.7862045635454078      10.213525395155434       12.22877905930903
   139   3    -0.10986760505332016      9.9215123794526434      14.247374009703153
   140   3      2.0879155624495134      8.1432449303057446      13.962286891569889
   141   4    -0.02856298174340301      8.4306773937811155      16.284188022445608
   142   1      2.0288928125776833      10.172489696262277       18.21834532284624
   143   3      1.9782811962449991      9.8964924957239813      16.139345787028613
   144   3    -0.05448315671072558      9.9330051911411896      18.222930639901971
   145   3      2.2494572391913814      8.0435747435406952      18.267577481842455
   146   4    -0.28567150649302436      8.3362601765558573      20.093970551682396
   147   2      1.9620735480891673      10.092116317909888      22.215941547944794
   148   3      2.0925259430836176      10.032775236854667      20.341040656138329
   149   3    0.092123790212110743      10.022590137218547      22.401448687346821
   150   3      2.1761330490168658      8.1624953195954255      22.413735059290353
   151   4    -0.19061600818813521      8.0880038529421601        24.1228675849216
   152   2       1.961540371617513      10.145611508202597      26.276251104049475
   153   3       2.069584521741513      10.133609298842389      24.395737841609481
   154   3    0.065196733686595634      10.000024254675624      26.456988069569846
   155   3      2.1508840169927401      8.1151019297491249       26.34801654911578
   156   4    -0.15392616115902877      7.9458065161070239      28.280509635232967
   157   2      1.8930495838636414      10.120568663343276      30.303190037262258
   158   3      2.1419654145467284      9.9589806421220466      28.409471751123249
   159   3    0.040894326672431924      10.210850342238707      30.372032175690236
   160   3      2.0783567100998375      8.2189399158096546      30.666264595073489
   161   4   -0.084876954517617911      7.8249189981164164       32.37078957531034
   162   2      1.9297653329210263       10.11589895672518      34.401147902621553
   163   3      2.0209998451168074      10.333764482218633      32.461096617883697
   164   3    0.033534184030898258      10.211918107989803      34.497493623063392
   165   3      2.1251187805285512      8.2325255491208829      34.355633667477818
   166   4    -0.27830019547835316      7.8803187797229075      36.381201246729475
   167   2      1.9833876888274615      10.032328708984648      38.444772982960117
   168   3        2.22791462542467      10.196416597264662      36.368412602751157
   169   3    0.095172955731612649      10.152497448564748      38.223719769540217
   170   3      2.1840358652832599      8.1563038215085957      38.443491756001812
   171   4  -0.0012255829579562157      8.0405784385629584      40.714904170621438
   172   1      2.0627080717552664      10.118242328308984      42.508375173531292
   173   3      2.0153835076230142      10.266701676645571      40.343748147115271
   174   3    -0.02390091468826952      10.140344920037448      42.405181724144256
   175   3      2.1035355480740963      8.0555331856629415      42.267313148918923
   176   4    0.028597056083964626      8.1959323629181302      44.902446162891586
   177   2        2.09300116069593      10.182666584923506      46.697017027571668
   178   3      2.0589332297896359      10.350727474466797      44.543960792538613
   179   3    0.076565463940285169      10.113393751398988      46.454343934703992
   180   3      2.0616414232798301      8.1451659726207151      46.320773144141533
   181   4    -0.24852415041610146       11.96236290320887    0.069502747276028495
   182   2      1.8513501549995988      14.197262650516453      2.0206958156489385
   183   3      2.1454058079774057      14.278006928906047    0.089794001170343099
   184   3   -0.022058505130848373      14.242753052344337      2.1059027606963876
   185   3      2.2073881163461238      12.232363985975235      1.9891141660153413
   186   4    -0.33420150736020499      12.050660906877262      4.0944131564256985
   187   1      2.0005944213310083      14.168251689023423      6.0986779177233927
   188   3      2.1827290604957397      14.126328942989561      4.0074344052386728
   189   3   -0.073785000881586627       14.14611811386272      5.9329621071928704
   190   3      2.0473412063893064      12.094241326447891      6.3330802289114034
   191   4     0.31040714592250179      12.175346718982551      8.1569982812527986
   192   2      2.2182149200076871      14.162671923109706      10.096731226823717
   193   3      1.7648189128710936      14.217481491872846      8.1822091600958871
   194   3    -0.11086577766676017      14.338261910587851       10.23087876051251
   195   3      1.7707500710785544      12.200252317153421      10.028006682657589
   196   4     0.35715995789048749      12.242976569548102      12.143139320594724
   197   1      2.0413923170685737      14.203374506780298      14.136164828244844
   198   3      2.0225488624498182      14.029581224936228      12.066723584494721
   199   3   -0.096107076914692627       14.14189373703821      14.044493714355685
   200   3      1.8032676619902399      12.072226824483955      14.250692023735775
   201   4   -0.036301624895237666      12.442460442552047      16.030948538390764
   202   2      2.0060664426388222      14.193399242023508      18.087775360773271
   203   3      1.9185703940943486      14.101632560889302      16.222235168422824
   204   3    0.052829472100955455      14.227044884779614      18.425343006640585
   205   3      1.9337221665069733      12.225630574354071      18.397718126454176
   206   4   -0.059807339471897113      12.216443944497035      19.900512266986329
   207   2      2.0869812652483195      14.057035027233754      22.250559554454735
   208   3      2.0453724282578558      14.226072643530822      20.367150574778982
   209   3    0.016458039196601482      14.239600861322939      22.373183248058577
   210   3      2.0039049737760255      12.126388943702857      22.303134936293706
   211   4    -0.16760446921492053      12.317347174570433      24.320076389273265
   212   2       1.989592571064414      14.307875749501592      26.350851042248276
   213   3      1.9985198835275706      14.012114174943974      24.334464572419307
   214   3    0.069787404069695441      14.113305408660612      26.359257655460269
   215   3      1.9975275199165239      12.050899390980875      26.510421892995005
   216   4    -0.20875925414926538       12.21830995268629      28.168711798691991
   217   1      2.0563842250899658      14.141468615093494        30.3400071732326
   218   3      2.1695207034074748      14.192477330160148      28.288082538984135
   219   3   -0.013799703663631174      14.205399046893394      30.433220692563154
   220   3      2.2616622834669569      12.053917001022352      30.345908911985141
   221   4    -0.25218030113448464      12.059735091983784      32.384059247968409
   222   2      1.8916700014829482      14.133309541711746       34.43706572499822
   223   3      2.1965564087294798      14.158687254164422      32.476145060709456
   224   3     0.04761514061770937      14.259366801049577       34.25736030632509
   225   3      2.0710458392357434      12.230514347142648      34.503619958959085
   226   4    -0.29095421958616247      12.035046949848464      36.545136867301032
   227   2      2.0400757622922514      14.155671464023079      38.462552625516274
   228   3      1.9866011225334488      14.418994504071408      36.376998863956629
   229   3    0.084800904948326303      14.423370199761889      38.478337610146788
   230   3      1.9580577054135406      12.263977541062317      38.293272779968284
   231   4    0.039918704310109625      12.084000284521554      40.730733571231866
   232   2       1.994598304591005      14.167874623276655       42.62047453720988
   233   3      2.1471770624998099      14.264246162625149      40.351829841150838
   234   3    0.093136347313548321      14.195323513188519      42.289849280175105
   235   3      2.0966455097270296      12.245705590201549       42.27631279458749
   236   4      0.2240481233284822      11.893788222802225       44.74228342753922
   237   1      2.0758992003114818      14.148840828763293      46.626655381016626
   238   3      2.0280271225804252      14.079217895067339      44.480559340638003
   239   3    -0.01704173199897854      14.400880014122574      46.564434350485683
   240   3      1.9790776336187854      12.100522106444771      46.624156489953421
   241   4     0.06366716529779573      16.346034294977166      -0.133891644040774
   242   1      2.0943047580540672      18.233608596049315      2.0151624651317839
   243   3      2.1208161610269576      17.953174715833566   -0.063747618200322112
   244   3    0.024566590277646263      18.173007900240954      2.0740778969729026
   245   3      2.1817434424768778      16.136406908250979      2.1424034470443472
   246   4   -0.055767448488164069      16.102447766206531       4.317935288262535
   247   2      2.1819820246760053      18.127659469214073      6.0008362847418777
   248   3      2.1206196509243656      18.387164414034348      4.1121054025582939
   249   3    0.084949100051859058      18.437761405200959      6.0131259031116118
   250   3      1.8825886482466194       16.23243583909337       5.993960135674965
   251   4     0.36870106282618204      16.270336286850824      8.2038004927257067
   252   1      2.1179753829352341      18.208119313451348      10.145385638648628
   253   3      1.9217767364570546      18.151438371024771      8.0725841496219637
   254   3   -0.040216842094432131      18.062266786638812      10.134177353545311
   255   3      2.0024847503416998      16.113513975739767       10.17877854236351
   256   4     0.36068902130240155      16.267594819179827      12.121720485848535
   257   2      2.1872439300866975      18.189194338115019      14.163012102538284
   258   3      1.9036923099134455      18.217026498679839      12.206153573659851
   259   3   0.0094976697582257047      18.279716845724884      14.200704925875925
   260   3      1.9094772870791357      16.257495611340605      14.165074352692404
   261   4    0.071474386389870651      16.484140386060204      15.880632519161466
   262   1      2.0488766619801648        18.2157780796441      18.211472605344731
   263   3      1.8991118625851497      18.251180224181663      16.145242891637345
   264   3   -0.072540610240392114      18.190124697038268      18.409586031355964
   265   3      2.0652054818012626      16.125205211109304      18.355967664224568
   266   4    0.086013481832443658      16.166399990125214      19.916619259550295
   267   2      2.0382180922853128      18.037155804602023      22.293338514266143
   268   3      2.0005579106533755      18.225771449813802      20.341536873287261
   269   3    0.061970544121039382       18.23080154877951      22.352961402253964
   270   3      2.0552155212659664      16.138056928572418      22.430651572387255
   271   4     -0.1532753770366283      16.107489812340052      24.179899425199554
   272   1      2.0113791136580694      18.235061354656043      26.308911846608833
   273   3      2.0796295040550725      18.416485933242523      24.253934030948685
   274   3   -0.038566163980063226      18.122282698469867      26.426342759922203
   275   3      2.1998913401091533      16.160518004913708      26.261851768981828
   276   4     0.12220140867920425      16.414199321890319      28.553021486170447
   277   2      2.1675008152972164      18.247596932755272       30.34331388273436
   278   3      2.0493000534382233       17.97779280776621      28.416388218468096
   279   3  -0.0021150204380550731      18.152962707225523      30.201171676057687
   280   3       1.994410929738007      16.239993603099933      30.598135923574553
   281   4     0.21891854346905892      16.192210016458343      32.279102511274665
   282   2      2.1048067724781894      18.208322803756989      34.470781312241549
   283   3       1.878560091710274      18.358991877122609      32.362411205197567
   284   3   -0.035853634301589651      18.209035841176668      34.302540575597448
   285   3       2.005970311459103      16.279768980063618      34.188074549213447
   286   4    -0.16432226179644446      16.125075965168811      36.718360523234921
   287   2      2.0435651288425967      18.222654094623742      38.587954596066758
   288   3      1.9669861896449961      18.190499862863582      36.340668506815568
   289   3    0.075050332107320816      18.173429173368174      38.331599846781387
   290   3      2.1548316479572129      16.256806496339497      38.374621285932676
   291   4  -0.0017276143984426334      16.037414302893882      40.661144949621331
   292   1      2.0531668361452566      18.201418171070927      42.565471503529359
   293   3      2.0947145112779189      18.191303158387136      40.442602078395076
   294   3   -0.012912480522467346       18.07289551188342      42.454126004980225
   295   3      2.0999743594881735      16.104311431172704      42.421673463567394
   296   4     0.29302397950257986      16.379233266278277      44.792503089254723
   297   2      2.1222886639903669      18.279985704533967      46.609590760181995
   298   3      1.9234081142002724      18.237550825056882      44.635938587174508
   299   3     0.10242828553320392      17.968211727822023      46.678133059570335
   300   3      2.1739244066306305      16.211761598400763      46.393509900046467
   301   4   0.0047237781887258974      20.364966332190765    -0.17629709887502179
   302   2      2.1011950487478428       22.14722279928564      2.1058883455550204
   303   3      1.9788673716469296      22.301611569237657   -0.015022559536838963
   304   3   0.0093356296419272872      22.260299108955824      2.0879978627158295
   305   3       2.000299733523021      20.281431709019735      1.8871049318791446
   306   4     0.24331937191115025      20.051337654005337      4.1884627714240183
   307   1      2.0407012284943966      22.293544479459918      6.0953275378029534
   308   3      2.1316753761892286      22.158301571506261      3.9939615620437019
   309   3   -0.033963920785575225      22.103092311552775      6.0645725984798116
   310   3      2.1733918517133506      20.208276820837536      6.2682496741256264
   311   4     0.34866824841255506      20.004903915871154      7.9020440954867661
   312   2      2.0133654179219467      22.137591546404934      10.165452898170473
   313   3       2.091551087310302      22.381389683145514      8.1799186878379668
   314   3    0.059001205792961101        22.5503204407777      10.109576315489036
   315   3       1.896568847211644      20.263653460479389      10.161268267268625
   316   4     0.29581205431282459      20.026378168122825      12.297652943537992
   317   1       2.052995173944077      22.269037419113705      14.222938801240133
   318   3      1.9929116973677306      22.432455211504561      12.123057772021975
   319   3    -0.05542033743413801      22.405296819509203      14.257015243361968
   320   3      1.8984565454845326      20.198467520934582      14.113178751078882
   321   4      0.2190738430566154      20.099793485602959      15.950594721334285
   322   2      2.1110644747852523      22.186902761325065      18.201338625727281
   323   3      1.8945241265008939      22.147547146431471      16.299591794614056
   324   3   -0.048054728563639425      22.433424338058412      18.331609644081425
   325   3      1.8726835895973146      20.313563997217855       18.47933341009902
   326   4     0.14075955859237083      19.908260957893543      20.220697973990443
   327   1      2.0293890108143713      22.273136928835349      22.249653390147525
   328   3       2.010943724735903        22.5946916639111      20.196015590311752
   329   3   -0.060061775596994646      22.452708243201151      22.412617311191219
   330   3      1.9768241671949409      20.224930237546857       22.18337746840059
   331   4     0.16809844130613469       20.09984471548746      23.965499764634792
   332   2      2.0077072275309615      22.173829452316056      26.330665835288563
   333   3       2.092725989928796      22.239442120621984      24.363001838211776
   334   3   -0.026555248740799588      22.407877693426791      26.221983016947551
   335   3      2.0010400194020721      20.296578358767412      26.554422213810888
   336   4   -0.041548663153756785      20.105960219418396      28.661625746837039
   337   1      2.0026427511958174      22.232331943797199      30.373799702947007
   338   3      1.9296797318285204      22.520182506000591      28.283829685847884
   339   3    -0.10801742154286599      22.230304281908932      30.160863916111037
   340   3      1.8747936242912584      20.166312045531011      30.210549590740545
   341   4     0.26125907223487893      20.187736948482023      32.372805505992211
   342   2      2.1218301471287608      22.260039093081765      34.294704685060907
   343   3      1.8450085601987567       22.07885263219945      32.417662325265084
   344   3   -0.082260116538814307      22.387011698334391      34.409546638985702
   345   3       1.818553843548335      20.220728830291129      34.410100811495347
   346   4    -0.10428137310300553       20.09596432037096      36.727101356962912
   347   2      2.0486709424815612      22.260206123710901      38.293220544482352
   348   3      1.9993454949741427      22.309913051149643      36.396366069445449
   349   3    -0.01132625293225303      22.303034077696868      38.339222110470047
   350   3      1.8671330645733826      20.257659207129112      38.404554237732377
   351   4    -0.15378542662253805      20.166917905765995      40.557501129383752
   352   2      2.0185233738931165      22.202554466104232      42.319378959558996
   353   3      1.9078212568560722      22.238525940078375      40.452822543481695
   354   3     0.11353449124397635      22.288996928075782      42.761302526522826
   355   3      1.9229431568306989      20.274725032945021      42.565939330965499
   356   4     0.20004155813524419      20.376346823294877      44.382807939127154
   357   2      2.0790148256258276        22.3607912361724      46.620554621308884
   358   3      2.0751794669983017      22.054541145976767      44.672578861802933
   359   3    0.060605530740797213      22.202047573740394      46.644761342449947