(written by ASE)

8640 atoms
4 atom types

0.0      48.599999999999994  xlo xhi
0.0      48.599999999999994  ylo yhi
0.0      48.599999999999994  zlo zhi

Atoms # atomic

     1   4     0.22701347237586902    -0.12365629444044199      0.2505272737920084
     2   1       2.019155864312399      2.0323503672317695      2.0966312967344396
     3   3      2.1304254874888997      2.0061944564980356    -0.13534331416504242
     4   3   -0.029193402499320474      1.9442166599862591      1.7702564547866493
     5   3      2.1392582900670325   -0.039758873271252215      1.9921133011293353
     6   4      0.1540148375537852    -0.25926081877710011      4.2274914976906999
     7   2      1.8983007659229747       1.993278317793058      6.1311256249104726
     8   3        2.10295362585433      2.1737716295386806      4.1479081867650773
     9   3    0.040799146407733237      2.1248486741145576      6.0891202857038973
    10   3      2.0319270420841757    0.047575976437419017      5.8791306730834698
    11   4   -0.014443094702723478    -0.36562696492601127      8.1355690135682632
    12   2      1.9502239906902279      2.0437392922339535      10.183359964951224
    13   3       2.180738292799338      1.8727539929976307       8.080871904750687
    14   3    0.047980832352052506      1.8087120525767406      10.073148476878547
    15   3       2.351226912453825    0.097631926300214458      10.226764261783199
    16   4    0.093140375859857322    -0.28278698503574395      12.215308206615841
    17   2      2.0595926511843596      2.0505095973642233      14.350396792722876
    18   3       2.030251007330425      2.1487200845569521      12.074717332763507
    19   3   -0.063800571837395251      2.0121037192303675       14.19531533083542
    20   3       1.998681598385498      0.1033063838193941      13.988615224750156
    21   4    0.040917589801707517    -0.34913103879561402      16.220830599238962
    22   1      1.9779768895922478      2.0579823534264841      18.280904488274135
    23   3      2.0536683643690767      1.9793307494937171      16.213999364095812
    24   3   -0.082359491259905868      1.9335476304153965      18.438782060086833
    25   3      2.2568702669854934   0.0017247044316504297      18.320956101177085
    26   4     -0.1258175043389744   0.0016715172929877796      19.990126371262573
    27   2      1.8679872604064598      2.0564132133449542      22.262154158975541
    28   3      2.2310102866362724      2.0218621361474907      20.369089181739355
    29   3    0.016798884394129771      2.2389198277996729      22.237782514882241
    30   3       2.059794623045172     0.14846212754271404      22.491681098246019
    31   4   -0.074094945144916935    -0.33752963870652508      24.362977103786719
    32   2      1.9157138710440784      2.0103812637584184      26.252830547516304
    33   3      1.9816409088717326      2.2396397986371728      24.364019419492838
    34   3    0.023807694192655691      2.0943321370956527      26.425941304877799
    35   3      2.0790219232427045     0.13557463341965276      26.247978703821019
    36   4    -0.14309386810354857    -0.36692474333642733       28.27548850183878
    37   2      1.9326024302061549      2.0034708772448648      30.236078456891729
    38   3      2.1251199346197529      2.0353145156356423      28.329683756976056
    39   3    0.059790006449515411      2.1867551405317762      30.396506754710817
    40   3       2.017645044210306    0.096583960261794444      30.472780155615151
    41   4    -0.35883752095591753   -0.051368109129620226      32.473348669707214
    42   2      1.9625076550406204      1.9255496885315444      34.398633026745685
    43   3      2.0490550898423368      2.1564212517404879      32.477710061176232
    44   3     0.08234386886951775      1.9125818455246177      34.438051111334154
    45   3      2.2638041907424356    0.056426890324058759      34.420154722235253
    46   4    -0.35394574654947558    -0.19201670064288201      36.335438691098076
    47   2       1.953297884034493      1.9198611657210534      38.392306337011327
    48   3      2.0745770147834506      2.0748936628089543      36.442005414745196
    49   3    0.075452050716279653      2.1402553474489796      38.526912186294503
    50   3      2.0691691467905833    0.067174165046828688      38.509022381096841
    51   4   -0.095536563372775454    -0.24997738800141467      40.535983146490757
    52   2      2.0550828797082472      2.0417798319198397      42.481768541471439
    53   3      2.0982473305593774      2.1775359332650202      40.475224458750844
    54   3    0.032228763583460301      2.1735914125207692      42.416032428430022
    55   3       2.041451211072661     0.16737516393470153      42.556253044205405
    56   4    0.096370126166465134    -0.34678436129498441       44.50317021012458
    57   2      2.0387641258997165      1.8999952440713934      46.533938222579714
    58   3        1.95905514579315      2.3005945812577098      44.472032405195499
    59   3     0.10390938572651826      2.2178972215800088      46.541285544128947
    60   3      2.0457824439193826    0.061799519252466677       46.35142398596804
    61   4   0.0027782373509314898      3.6757619702587254     0.08565137970525849
    62   2      2.0692796360893615      5.9837093001127686      2.1070783127657382
    63   3      2.0003886642376623      6.3427506896746371    -0.10151574690897057
    64   3    0.038180820711956706      6.2491950197307089      1.9604090366675719
    65   3      1.9915217132951049      4.1179008943505719      1.7403424640522511
    66   4    -0.16476394089306692      3.9625020423349704      4.3819766937698965
    67   1      2.0046690031488383      6.0562317197614641      6.1190679827178744
    68   3      2.1265670193091162      5.9425445081812827      3.9914538382110978
    69   3   -0.051104380547115323      6.0269804428021718      5.9317537455272991
    70   3      2.2158614344975085      3.9660025697769412      6.1719346282042622
    71   4    -0.16655077411066213      4.2584948060693826      8.2943305302016324
    72   2      1.9228057904042675      6.2035394771583015      10.148933859999197
    73   3      2.1464446313973031      6.1205897559346401       8.184709788079811
    74   3    0.036383972786039449      6.1337347320825604      10.095635424666355
    75   3      1.8650244780088889      3.9898728508039998      9.8916758575142953
    76   4   -0.034556438695481827      4.3160826241807424      12.225946212324295
    77   1      1.9868033151189348       6.082619148301843      14.199959980330012
    78   3       2.008594948326603       5.805535752528443      12.056603674653379
    79   3    -0.10166617911261408      6.0026983402715928      14.134737968144758
    80   3      1.9427096120726419      3.9940099963896092      14.202399705984631
    81   4     -0.2216931205038824      4.3384292920322922      16.141776310824497
    82   2      1.8376446128030346      6.0945056709825343      18.287153623336383
    83   3      2.0878964756735088      6.1249236644656531      16.293295569413473
    84   3   -0.012272369300367012      6.1802095861006139      18.326425235776412
    85   3       2.029411713522197      4.1397540540174544      18.250387871220045
    86   4    -0.34100396155809465      3.9398257627659841      20.107811774592101
    87   1      1.9970555353384396      6.0773767576398088      22.254014448574701
    88   3      2.2652457010176494       6.106328655978718      20.198442434360611
    89   3   -0.051313491590540751      6.1233206333350916      22.291662220480617
    90   3      2.3140139455449495      3.9994999932012485      22.280445773450637
    91   4    -0.38905516321905131      3.9718028668238445      24.259077999923697
    92   2      1.9459831640269083      6.0693953822416731      26.304633929123181
    93   3      2.0786749261856414      6.0486857829967393      24.387484344710352
    94   3    0.035947642527905228      6.2291497636504127      26.465545868214164
    95   3      1.9904773764037527      4.0917628779065023      26.513226036933567
    96   4    -0.36378445661882303       4.024417751058758      28.175640972720565
    97   1      1.9476044797276297      6.1015570154144507      30.390844965119832
    98   3      2.1259538936716385      6.2063686045077615      28.347750869268737
    99   3    -0.10761554776193596      6.2610212780666883      30.406392034806561
   100   3      2.2412880343704846       4.024207477304671      30.348593154883115
   101   4    -0.31498842866291921      3.8338937404884978      32.335650052958364
   102   2      2.0088553521853219      5.9253342253438053      34.409440594948826
   103   3      2.1068973375521192      6.1252926168154973      32.504968631642733
   104   3    0.087584191270806272      6.3116780293664601      34.407844574315426
   105   3      1.9391091794251967      4.0602644827095471      34.546669656294931
   106   4    -0.39033702048824309      3.9563477669497544       36.34155287574751
   107   2      1.9328864363348881      5.9972232415146784      38.458813416915078
   108   3      1.9603534280467212      6.3171901636568446       36.46394312763357
   109   3    0.039629523914746126      6.2690306650830507      38.537105156355416
   110   3      1.9879906958123152      4.1389201062711098       38.36528558226491
   111   4    -0.17588358553219036      3.8428113989300052      40.516560120178731
   112   2      1.9689758166586535      6.0829518265457265      42.588599847888389
   113   3      2.1891404006648574       6.182687890849917      40.364006417720752
   114   3     0.09512592857284688      6.1919650834374949      42.307359742787973
   115   3      2.0750962553542869      4.1731275793943006      42.359291368059189
   116   4   -0.085993935984231842      3.9019861293711866      44.734018328509485
   117   2      2.0569541594274243      6.0496827449292807      46.619643734033453
   118   3      2.0534007126460097      6.1064145021257072      44.471073552384567
   119   3    0.079798965024779914      6.2104629038521599      46.391604220069475
   120   3      2.0445398953276297      4.1737504964676271      46.613594567244192
   121   4     0.14433094714313496      8.1253298093861339     0.29769246775753133
   122   1      1.9906933772720046      10.156672819407714      2.0550001033924392
   123   3      2.0194466758571523       9.939209009027639   -0.036128243953453112
   124   3   -0.069089870418258092       10.17479365375852      1.9480255850288009
   125   3       2.133154844706691      8.0547368725916915      2.0812435460210601
   126   4   -0.083283339292973727      7.9575819195345856      4.4168552439003204
   127   2      2.0201338173263625       10.18787465839506      6.0043408903078399
   128   3      2.2757498580736408      10.240488243522408      4.1020791572901549
   129   3    0.055798868920591473      10.081727363381418       5.979423425062703
   130   3      2.0652299004081249      8.1273353195053684      5.9003474512388872
   131   4    0.020855905571209653       8.366765348369599      7.9868445997009294
   132   1      2.0252332448329993      10.146066152350393      10.154027106530643
   133   3       1.856181820869615      9.8946709776626331      8.0624823247620228
   134   3    -0.10501223958198333      9.8814846252933375      10.143541451734787
   135   3      2.1534437981286336      8.0510568379653407      10.310825433570033
   136   4     0.25455621057466449      8.3723961342428534       12.23164085646313
   137   2      2.1375301396564268      10.176071584385062      14.224061145803319
   138   3      1.7833958892872268      10.213706423466675      12.227653357834862
   139   3    -0.11407632011572209      9.9223773567381723      14.248912915429603
   140   3      2.0855943128268524      8.1448261912080451      13.960157786546526
   141   4   -0.024725880098954611      8.4291740268290845      16.281473186072091
   142   1      2.0278755476982533      10.172893138961939      18.218013702276231
   143   3      1.9773314949481233      9.8985247248401098      16.138086989592374
   144   3    -0.05920424546789213      9.9366113057608594      18.221801702821264
   145   3      2.2462371142855262      8.0458464466201711      18.266253456723476
   146   4    -0.28900717202978105      8.3344565189421651      20.098689085491753
   147   2      1.9618446179524718      10.090927416771162      22.214565767146539
   148   3      2.0914436412259154      10.032300723515878       20.33985624800799
   149   3    0.091666149613109468      10.020241577415961      22.400198277609633
   150   3      2.1764144783349137      8.1622644829087072      22.414036806324798
   151   4    -0.18757735740603609      8.0887793904783969      24.127347252661799
   152   2      1.9632173747505526      10.144679179719803      26.275601690522539
   153   3      2.0697624533172303      10.134732405590935      24.394587396335279
   154   3    0.065730775237086064      10.000859154691289       26.45543952290123
   155   3      2.1514446137993168       8.115146224257364       26.34521205411739
   156   4    -0.14986409051804678      7.9423269765325237      28.279318070641228
   157   2      1.8933309619085765      10.120482898237936      30.302498807905021
   158   3       2.140462509444462      9.9572707217339698      28.409243501837924
   159   3    0.041244501801512116      10.212053843763337      30.372218883134149
   160   3      2.0771929032638359      8.2187035029116426      30.667165478341474
   161   4   -0.085199422650199808      7.8245371174992338       32.37064426272638
   162   2      1.9288149563845551      10.114068928152911      34.400766531975925
   163   3      2.0202425909557302      10.333213610325231      32.461543074085483
   164   3    0.032915623883920116      10.211147450472856      34.498643450783078
   165   3      2.1248823954690543      8.2311761514309545      34.356334929568909
   166   4    -0.27920981909012832      7.8780432949131258      36.382253776261081
   167   2      1.9828644171038063       10.03201768010779      38.445079043125858
   168   3      2.2284716764277928      10.196019276855901      36.368649367428567
   169   3    0.094813920505729204      10.155114255949995      38.223171542756006
   170   3      2.1812557860860764      8.1562507192903873      38.444593520833379
   171   4 -0.00010891403206429067      8.0410873242012162      40.716732871971786
   172   1      2.0624195822977307      10.118250281508132      42.509117742263932
   173   3      2.0140396946902253      10.267997385102083      40.343968760063902
   174   3   -0.024428673517614439      10.141030631756594      42.405273522689534
   175   3      2.1020488600489755      8.0559591928154308      42.266983751512768
   176   4     0.02728944470026436      8.1956382018803549      44.904037036325995
   177   2      2.0937808034399938      10.182932395616607      46.696995815294628
   178   3      2.0586487550570158      10.350497815830435      44.544644297916136
   179   3    0.076461086565826314      10.113495837543633      46.455491667562484
   180   3      2.0616864504236725      8.1448766534155528      46.321505934185254
   181   4    -0.24903084498487429       11.96224412109011    0.068928050352857803
   182   2      1.8528698485046802      14.197576679279656      2.0212513547816169
   183   3      2.1463040334817447      14.279392553983426    0.090145622845835785
   184   3   -0.020174391554846946      14.243500293958114      2.1058606603042445
   185   3      2.2077104082407386       12.23226032603481      1.9891599764766923
   186   4    -0.32263865919777218      12.048466858108638      4.0886828541820286
   187   1      2.0039904309149978       14.16865006617876      6.0981640616147725
   188   3      2.1837381006224197      14.126031067294955      4.0073428332451924
   189   3   -0.070320349739995444      14.144928612743803      5.9379873508291308
   190   3      2.0491711711253369      12.093585413831871      6.3321063740089452
   191   4     0.31425559894364885       12.17741064931505      8.1514738578204842
   192   2      2.2189166715201449      14.162447280619679      10.096016799037283
   193   3      1.7673503298380762      14.216647324920471      8.1817877499803924
   194   3    -0.11027983620316512      14.341943712531817      10.223488686441168
   195   3      1.7686303310284901      12.199785010702168      10.028911360542029
   196   4     0.35970357501878669      12.240849118165325        12.1401062868061
   197   1      2.0428984532996521       14.20303602723804      14.134480861500606
   198   3      2.0164111156918385      14.033081122264257      12.065736123790755
   199   3    -0.09808734984340102      14.142098077201879      14.056470951022396
   200   3      1.8007799829517432       12.07179395251822      14.248738771944478
   201   4   -0.034812886424118575      12.446574701177218      16.024959847358705
   202   2      2.0064738731135194      14.191856365736163       18.08707171661132
   203   3      1.9214475664096236       14.10218658353603      16.221614782307313
   204   3    0.051361015508210851      14.225995895226037      18.419719983456453
   205   3      1.9347743641574484      12.225665701389516      18.398388594293746
   206   4   -0.059048765451040611      12.219767674446517      19.901420724337189
   207   2      2.0902367021242449      14.055923609626987      22.251080303118343
   208   3      2.0361155746590662      14.226708095775329      20.367316072078346
   209   3    0.015334979107929808      14.240080992522987      22.375496851445622
   210   3       2.001993476412832      12.125876811720902      22.301439108183907
   211   4    -0.16224354092381213      12.316028384458125      24.319408935288834
   212   2      1.9890687268340479       14.30860148131115      26.350563969187522
   213   3      2.0012007890601859       14.01209091759409      24.331738834174178
   214   3    0.069630388596433029      14.110808671155864      26.352689853576635
   215   3      1.9980672914501116      12.050818197574472      26.511394767203861
   216   4    -0.20566615789251511      12.216564741537368      28.169333635806446
   217   1      2.0574976765891591      14.140280770029026      30.339278392754267
   218   3      2.1591285147540398      14.202264514720786      28.286125381436371
   219   3   -0.012865857464829976      14.203954516113326      30.432811471355052
   220   3      2.2629419414819703        12.0533528548017      30.345070543519626
   221   4    -0.25374262368801487      12.056743749855512      32.385320152408077
   222   2        1.89221750938497      14.132102318318411      34.438152177990467
   223   3      2.1953406140086638      14.159683389894722      32.476242257638546
   224   3     0.04792606912285359      14.261108510419026      34.258562277022527
   225   3      2.0699443742852273       12.22989843615329       34.50349639602851
   226   4    -0.29067186522304056      12.033921326850839      36.545135797606733
   227   2      2.0401071765722891      14.155698345397354      38.462894042060455
   228   3      1.9883189630913183      14.418422742667431      36.377055989654423
   229   3    0.084000446869803791      14.419536662815913      38.475953792150584
   230   3      1.9612126257882661       12.26393914311698      38.292529523265415
   231   4    0.039494074377109507      12.084507062733927      40.732316474745659
   232   2      1.9947822872412182      14.168206717013629      42.621169999668297
   233   3      2.1447466034780485      14.263550484343204      40.352237980030466
   234   3    0.093049772924033103      14.196013595322425      42.292113160175397
   235   3        2.09662399070994      12.245856339266458      42.277018845579143
   236   4     0.22185729936263193      11.892102371586541      44.743088091687262
   237   1      2.0758251469658511       14.14931992606958      46.627094397768893
   238   3      2.0297348893771647      14.080563529612158      44.481173688249214
   239   3   -0.017477765532227445       14.40228457000088      46.566713325999977
   240   3      1.9793279449006642      12.100597446247095      46.624868070199561
   241   4    0.064399363888893682      16.343334236535966    -0.13426907917267711
   242   1      2.0950886335888765      18.234479355549542      2.0156842386539431
   243   3      2.1201934366964537      17.954678627104585   -0.062978812223110678
   244   3    0.025997907471437015      18.167932518379008       2.081699367988207
   245   3      2.1837044249914066      16.137338443381484      2.1435538107417385
   246   4   -0.052172375752371665      16.108009536466497      4.3170677093945971
   247   2      2.1845951471656067      18.127917382002536       6.001125541711299
   248   3      2.1236752141081943      18.388594644425559      4.1123193158727283
   249   3    0.086842223920260628      18.437051682252601      6.0112434426804517
   250   3      1.8850659732515622      16.232918570125399      5.9936177230829895
   251   4      0.3709583388016911      16.271878719299096      8.2004323156875962
   252   1      2.1193661235658956      18.209051020790341       10.14387255668678
   253   3      1.9221235752692987      18.153051205937015      8.0719128506820201
   254   3   -0.040419504142815608      18.060835189860384      10.134161172735247
   255   3      2.0045640850377215      16.113976811446172       10.17728486757407
   256   4     0.36470862042022978      16.269866945062521      12.116415029380429
   257   2      2.1881862269698158      18.190407801756631      14.162717213786552
   258   3      1.9032392651487642      18.217031030066309      12.205575993393246
   259   3   0.0092778029147449047      18.280407073257113      14.203429143707314
   260   3      1.9089356460583797      16.257836400421109      14.165306751891922
   261   4    0.078187154354982677      16.483265546846166      15.877911472111728
   262   1      2.0508991472884679      18.216956658947126      18.212020450928947
   263   3      1.9013880446275933      18.251006039231882      16.145138794663801
   264   3   -0.073972977056472614      18.193526723116136      18.404813091805387
   265   3      2.0633942159353764      16.125007058252866      18.358510680752225
   266   4    0.095475002883932847      16.163925420780142       19.91923587739586
   267   2      2.0413087525068114      18.036740934533853      22.291248721591689
   268   3      1.9956103744941669      18.221130002643346      20.340604288346633
   269   3    0.063200557387473461      18.227609222698828      22.357052783164008
   270   3      2.0560605111237367      16.138336839952725      22.429693164327063
   271   4    -0.14959970431377317       16.10816384674078      24.177077682371245
   272   1      2.0144899857418701      18.234745917128865      26.308567360656209
   273   3      2.0850434839474867      18.420421673964217      24.251634860104794
   274   3   -0.034642314761087943      18.122872446612092      26.416387572689814
   275   3      2.2023882673214392       16.16083836754126      26.257624947787054
   276   4     0.12552804153242572      16.411435848289841      28.559737698258914
   277   2      2.1684268985784967      18.246308208049072      30.344852081104399
   278   3      2.0490380800421506      17.977574224054905      28.416184637366712
   279   3 -0.00048414810371591758      18.154603306492788       30.20305670298243
   280   3      1.9935069524620435      16.239371528945956       30.59675164712586
   281   4     0.22007138913297264      16.186373423688725      32.282786179549042
   282   2      2.1051499957692763      18.208589789203174      34.471638881059988
   283   3      1.8814057507065887      18.359753557847942      32.362633639304484
   284   3     -0.0351876561609787      18.208081060992601        34.3018596688458
   285   3      2.0068941649556176      16.280085386411784      34.188109573684024
   286   4    -0.16367804656726426       16.12479911090184      36.720040401963637
   287   2      2.0434390369601338      18.222057329629834      38.586873085617682
   288   3      1.9676117509456876      18.189841401231899        36.3410089573159
   289   3     0.07388332667736959      18.181013304909577      38.331088827131914
   290   3      2.1477713376178054      16.256820835980271      38.374789674878663
   291   4   0.0010744986650167868      16.038247788315847      40.663096276599184
   292   1      2.0523799449776221      18.200754743026049      42.565270862087623
   293   3      2.0927008170458938      18.192596933765646      40.441939725113691
   294   3    -0.01401341803984983      18.065233129999061      42.451183261003855
   295   3      2.0999800422781805       16.10398568647199       42.42051785385182
   296   4     0.29156860128156376      16.380400704979618       44.79210537233071
   297   2      2.1217271575740195      18.279292268078965      46.609918429306084
   298   3       1.921476875571384      18.238127755102472      44.635420100826053
   299   3     0.10158837521288201      17.967098478277467      46.678968588072678
   300   3      2.1740173053954268       16.21224902363975      46.394927571368804
   301   4   0.0060200901519341776      20.363830864343118    -0.17660480539218834
   302   2      2.1008778019499408      22.149077663379543      2.1068097220658464
   303   3      1.9808759426722951       22.30141401560914   -0.015525088099334245
   304   3   0.0094884451108127842      22.267270293674379      2.0907781227457498
   305   3      1.9957864655758382      20.282584026397984      1.8868108164725332
   306   4     0.25565859796848656      20.056645895910705       4.189714368255915
   307   1      2.0422997482558034      22.294952447291156      6.0958695250279868
   308   3      2.1291933945495169       22.15585428867919       3.995170202516019
   309   3   -0.032689114098289167      22.103491492481449      6.0662076426926399
   310   3      2.1731653893237044      20.209207607216808      6.2672286839159863
   311   4     0.35014444591479771      20.007195691696808       7.899002361069746
   312   2      2.0137547349454565       22.13797895868526      10.164689473393114
   313   3      2.0921306660442074       22.38085064624844      8.1801953900305957
   314   3    0.059364729981224669      22.552023820480446      10.108986159960203
   315   3      1.8948214404701145      20.264125126673058       10.16331539321021
   316   4     0.29742809989443492      20.028199716952614      12.294686762811786
   317   1      2.0534203115350489      22.269945670516503      14.223157836130301
   318   3      1.9922827936435619      22.433156723088665      12.123192637804463
   319   3    -0.05473146402276096      22.404523833433867      14.257444089045922
   320   3      1.8993230186269037      20.198748809422781      14.111728724230357
   321   4     0.22068237465001939      20.101516411998219      15.947884300455687
   322   2      2.1122447253590031      22.188406145937879      18.200810889938804
   323   3       1.894148535393021      22.142716524770716      16.299823014810549
   324   3   -0.050270342835166286      22.426946515382181      18.331108589588588
   325   3      1.8779627491586963       20.31455691367519      18.485491463930362
   326   4     0.15613631231990915      19.917614834588402      20.232807778342604
   327   1      2.0298455383226726      22.272932246346578      22.250164746354379
   328   3      2.0106523683451365      22.596954204544925       20.19555594206415
   329   3   -0.060127157256950871      22.459174545980495      22.408807261327137
   330   3      1.9630412511677002      20.225759145865695      22.168436845324194
   331   4     0.17110827242846383       20.09492054404863      23.968338420219954
   332   2      2.0081369174294621      22.173086653245594      26.329500520331933
   333   3      2.0916382455774736      22.239881222934962      24.362348772962584
   334   3   -0.026686201677822874      22.408885810742994       26.22187469022019
   335   3      1.9991098854755081      20.296607918390055      26.554930327719884
   336   4   -0.037450030960777217      20.105776067945939      28.660517403752575
   337   1      2.0043503040996975      22.232408028036019      30.373205204697026
   338   3      1.9282308162927337       22.52061027757858       28.28291370329595
   339   3    -0.10763373137815799      22.229487125328081      30.161334295758177
   340   3      1.8765803506891341      20.166179632132945      30.209059198236151
   341   4     0.26312010028788563      20.187067774222477       32.36982971729649
   342   2       2.122084156902218      22.260048825413875      34.294889447403428
   343   3        1.84513624730542      22.077933683897978      32.417462940309967
   344   3   -0.080972039019650721      22.388053143150444      34.411555491370471
   345   3      1.8187135747824763      20.220641387718889      34.411006097062163
   346   4    -0.10519882835883662      20.099783038422807      36.730176815935899
   347   2       2.051946415007134      22.258439714407487      38.293315913726708
   348   3      2.0031360260908992      22.311783661442906      36.396703328063857
   349   3  -0.0095772533023635812      22.290618027984266      38.335083212138855
   350   3      1.8748115421537823      20.257774788703298       38.40373968252635
   351   4    -0.13964156697947658      20.167863087017768      40.571071634694661
   352   2      2.0202275812218518       22.20295455502098      42.321041110094392
   353   3      1.9050101573699234      22.238956618652534      40.453523864977157
   354   3     0.11505977146983286      22.292013758632049      42.762912247505874
   355   3       1.913107639460635      20.273304654455234      42.558530260024149
   356   4     0.20036729366913039      20.376957477455839      44.386670130210554
   357   2      2.0790099203480854      22.360323348958708      46.620750830109486
   358   3      2.0756450073570476      22.051342903291015       44.67128773520124
   359   3    0.060812259792432079      22.202199559689344      46.645442200723203