(written by ASE)

8640 atoms
4 atom types

0.0      48.599999999999994  xlo xhi
0.0      48.599999999999994  ylo yhi
0.0      48.599999999999994  zlo zhi

Atoms # atomic

     1   4     0.22410671304967952    -0.12851838729390921     0.24548429531713128
     2   1      2.0196919732096181      2.0288435268621021      2.0957664801808469
     3   3      2.1325759129747781      2.0037119999359887    -0.13606098107038148
     4   3   -0.026744522951803518      1.9393377615208576      1.7638192011895011
     5   3      2.1446893978887003   -0.044838503129675758      1.9898430114177106
     6   4     0.12474579686614079    -0.24405323180536623      4.2509745745812113
     7   2      1.9004664280434078      1.9907936618568101      6.1277407044059711
     8   3      2.1125781195563489      2.1632668045264216      4.1470551477918569
     9   3     0.04347972349178688      2.1138366087050557      6.0837565008086898
    10   3      2.0303007588636892    0.043032959678146021      5.8794046072586994
    11   4   -0.012185329552938565    -0.36611906301133568      8.1353157229805166
    12   2      1.9502993560134412      2.0409057799079187      10.182434621348179
    13   3      2.1812620859379281      1.8674674471244026      8.0801758521116316
    14   3    0.048531058348192824      1.8040310046329915      10.078807596504102
    15   3       2.353944994066941    0.095716201335852347       10.22738765602835
    16   4    0.093478639026162311    -0.27846929952934646      12.218453844911396
    17   2      2.0589425115090365      2.0505025106800607      14.350372960765094
    18   3      2.0356383473044208      2.1464667372786823      12.073442152113492
    19   3   -0.060366110843395993      2.0139334337520642      14.182563733992041
    20   3      2.0001394619796309     0.10170219374710529      13.989324057702325
    21   4    0.040458214543871281    -0.34629286624843619      16.222787657850088
    22   1      1.9769896624130028      2.0603549375998766      18.278388851063546
    23   3      2.0520540580987583      1.9765063159694103      16.213511847753086
    24   3   -0.081906343356040481      1.9349469384050459      18.446581102443776
    25   3      2.2575830590309907   0.0020138327453935504      18.318668085007275
    26   4    -0.12293732979471128   0.0068245642276580608      19.988703478712701
    27   2      1.8693331328698559       2.056193666798015      22.258838891191605
    28   3      2.2224439281066499      2.0199497056986813      20.365054913180188
    29   3    0.017390945470125214       2.235633745673697      22.241408378940086
    30   3      2.0594828091057309     0.14776405254085123       22.49345173660922
    31   4   -0.075839828840933765    -0.33569795082543219      24.362443323871393
    32   2      1.9158806872610379      2.0095150868241403      26.252651579292404
    33   3      1.9817132661289369      2.2389534110581715      24.364212649577002
    34   3    0.024026208399408926      2.0923954443923591      26.427195938406047
    35   3      2.0791140160056529     0.13402991016832669      26.248315258693932
    36   4    -0.14286671780701721    -0.36650736813831791      28.272500227006969
    37   2      1.9317886676917162      2.0038911479996262      30.235377482060454
    38   3      2.1251538895257931      2.0346222023499152      28.330159316910283
    39   3    0.058344750511672025      2.1861479180599166      30.396088480580573
    40   3       2.017533850807752    0.096470604187968809      30.472633601575897
    41   4    -0.35846019480689578   -0.048597058722931095      32.476546861865415
    42   2      1.9622400292556021      1.9253379632639716      34.398403071152316
    43   3      2.0479246512122109      2.1565782269163005       32.47826686671295
    44   3    0.082076003181023816      1.9123781122830399      34.438088701134127
    45   3      2.2638828851866464    0.056274262837748133      34.419466660992981
    46   4    -0.35442272394898378    -0.19145679156975395      36.335673428092832
    47   2      1.9524876926582557      1.9194145786965522      38.392382857870111
    48   3      2.0740749815966026      2.0741680902506188      36.442326669017042
    49   3    0.074704946019844648      2.1405503356731344      38.526815439847248
    50   3      2.0681487168516748    0.067003472681090137      38.510107715870866
    51   4   -0.094025617466684086    -0.25268672237776868      40.535244288111784
    52   2       2.055745076078376      2.0414796888263331       42.48107603899409
    53   3      2.0983125487230372      2.1773843493902878      40.475520361989446
    54   3    0.032322766077172937      2.1749805344821778      42.416770841358442
    55   3      2.0404366447783686     0.16704971123090642      42.556085887891058
    56   4    0.095579279876979575    -0.34781155627290039      44.503667466432219
    57   2      2.0401328782880026      1.8991232693049542      46.534062131191376
    58   3      1.9595828189638433      2.3002213257567048      44.472124950310281
    59   3     0.10544245232464268      2.2175876495409126      46.539869296941994
    60   3      2.0469031631479422    0.060782080554132555      46.352370426626372
    61   4   0.0086549231975923801       3.677325978904455    0.087816585868062902
    62   2      2.0759295953017149      5.9841377264651738      2.1152978178065549
    63   3      2.0021127700419865      6.3477577370103129    -0.10397476114020668
    64   3    0.040949427676102365      6.2434799225105619      1.9526803019930492
    65   3      1.9923557975235695      4.1173490220499609      1.7361623184757278
    66   4    -0.16478852655385615      3.9697806392363368      4.3868841962658163
    67   1      2.0072116778926756      6.0534407191741693      6.1224602333175833
    68   3      2.1247759984454322      5.9262564195057017      3.9938976023691333
    69   3    -0.05191008825229726      6.0206116031558565      5.9349354279955726
    70   3      2.2163379424462408      3.9611080367919298      6.1710710527189505
    71   4    -0.16297668255345454      4.2671816596193661      8.2943665610212189
    72   2      1.9365711983360752      6.1937173089466748      10.151418466183337
    73   3      2.1532191456705836      6.1116677737908018      8.1830659036444313
    74   3    0.043784029597421163      6.1334232168114999       10.07906248272629
    75   3      1.8666777027000951      3.9849091341570961      9.8900783695014916
    76   4   -0.029339062238687826      4.3086964431051973      12.237782393511681
    77   1      1.9829072786181408      6.0801423041433171      14.197407044239078
    78   3      2.0023727960767705      5.7962113597102594      12.058940275940296
    79   3    -0.10388665290781623      5.9938561520932545      14.141212728703653
    80   3      1.9458399066931173      3.9924382012492696      14.203298596644933
    81   4    -0.23430434359601865      4.3295514690851444       16.15394767598595
    82   2      1.8408088541512151      6.0981106743902282      18.283829632924647
    83   3       2.092578066998616      6.1267210316997165      16.291008824156208
    84   3    -0.01005160242193149      6.1845190696366252      18.323788562237201
    85   3      2.0252035655931029      4.1410359283040545       18.24653131934425
    86   4    -0.33660808995458874      3.9371751970581683      20.104341305062619
    87   1      1.9994744236748956      6.0789981615429758      22.251469026843303
    88   3       2.264067603050711      6.1100413052048941      20.196054160365208
    89   3   -0.048391184997167623      6.1223292909269036      22.293593179657982
    90   3      2.3144699721765942      3.9991911537991722      22.275659640836277
    91   4    -0.38748052874575306      3.9667355957411012      24.260770186774824
    92   2      1.9455448677592071      6.0685861420656337       26.30737493637038
    93   3      2.0863402305088337      6.0492087237560828      24.390001101238333
    94   3    0.036527764170614131      6.2308244048533643      26.463495748373589
    95   3      1.9873796773743433      4.0901544976275526       26.51307956572543
    96   4     -0.3645321944742676      4.0223575203977351      28.176446163036065
    97   1      1.9469946374866387      6.1012009281872164       30.39102403438056
    98   3      2.1225691306460912      6.2053068659891322      28.349505539353935
    99   3    -0.10819809355062122      6.2618662815489099      30.408242741529008
   100   3      2.2383441666237158      4.0238400017271188      30.351137041945041
   101   4     -0.3151554817028675      3.8346600931056525      32.333790729918995
   102   2      2.0082451376164268      5.9249631014731108      34.409413701615982
   103   3      2.1074802539284421      6.1247401636777283      32.505469701620441
   104   3    0.087373876579691201      6.3118348028239968      34.407910146836514
   105   3      1.9385208975408414       4.060154972275261      34.547297926968767
   106   4    -0.38988930492117474      3.9564956310670696      36.344631949612989
   107   2      1.9325769130987973      5.9964999847229254       38.45896371010754
   108   3       1.959294798762437      6.3168305401071834      36.465100582638378
   109   3    0.039216404009538949      6.2680805882149304      38.538802542812505
   110   3      1.9877211551049427      4.1383956562690267      38.366109071957347
   111   4    -0.17682805537003754      3.8430582313480151      40.517554534980782
   112   2      1.9694200947240337      6.0823644653786326      42.588021485720461
   113   3      2.1885309280278773      6.1825160611165595      40.365141741618515
   114   3    0.094724178224319291      6.1922834273652647      42.308731361681055
   115   3       2.075245216341989       4.172990750925476      42.360806759586659
   116   4   -0.084267843029172187      3.8967578998822288      44.730567288992972
   117   2      2.0583542334015705      6.0482132692949619      46.617140955297948
   118   3      2.0538572826211121      6.1075754893501539      44.471659869795921
   119   3    0.081282592150736951      6.2132264226438867      46.392883691179314
   120   3      2.0483036918016224      4.1729032435025637       46.61353399492036
   121   4     0.15228401560304999      8.1013342958738956     0.29255810109082742
   122   1      1.9938014023760153      10.152351478158288      2.0580770805548045
   123   3      2.0040950434323084      9.9458017244075165   -0.034960786451825425
   124   3   -0.071809962088702786      10.206302155291597      1.9881717451009315
   125   3      2.1294180903761566      8.0521984561131976      2.0849609336120185
   126   4   -0.054634217087936816      7.9583032055236487       4.439979375812265
   127   2      1.9949943686594063      10.209405078387659      6.0467875968157667
   128   3      2.2613958292431029      10.257935986323817      4.1167091796448201
   129   3    0.046898145564327906       10.06265979534848      5.9494293826444373
   130   3      2.0662732605102234       8.118247651328014       5.879061089438113
   131   4    0.026122424777650706      8.3462677774076415      8.0539892646960638
   132   1      2.0314424414612442      10.139084026628161      10.155703516791144
   133   3      1.8679465035825424      9.8444482737390455      8.0563405188882911
   134   3   -0.095893807346120574      9.8108845774614615      10.121067850062106
   135   3      2.1572586306700359      8.0392028508879605      10.304415376445045
   136   4     0.23967344314442723      8.3745283938730601      12.234053662643131
   137   2      2.1110423243200578      10.225329168672342      14.183761093675438
   138   3      1.7697953483145479      10.206352548281123      12.226479406932224
   139   3    -0.12155537606802684      9.9286302135551328      14.255723622300867
   140   3      2.0925449436489441       8.136726568160551      13.980385942800501
   141   4  -0.0013470902632608224      8.4399764888500766      16.268281100608217
   142   1      2.0243550069161835      10.175973831569284      18.211170951944407
   143   3      1.9730986686732377      9.8840648637629034      16.129307834424136
   144   3   -0.063904715627314812       9.937263517784924      18.212354437141851
   145   3      2.2438056349441542      8.0484898564874641       18.26022556508752
   146   4    -0.28847084985628424      8.3249315138307249      20.101757807489484
   147   2      1.9609904975046868      10.090016112792446      22.212477827658777
   148   3      2.0875015336389677      10.030638369454795       20.33837412598772
   149   3    0.092449330809199634       10.02267402341926      22.401460963531608
   150   3      2.1734970612460653      8.1634229897391339      22.418303461733831
   151   4    -0.18612801086245029      8.0887476576298472      24.128899990535597
   152   2      1.9642753648149334       10.14473219609776       26.27609223377311
   153   3      2.0721319158011688      10.137699567112413      24.396634885157841
   154   3    0.065681242627773112      10.000119304765741      26.456100540006805
   155   3      2.1562147190296432      8.1139720928486838      26.344649039732797
   156   4    -0.15333223301013815      7.9418092985918927      28.280718698081198
   157   2      1.8919592522800659      10.120674280244458      30.302387834471162
   158   3      2.1386958485367074      9.9556032172830218      28.409938234067383
   159   3    0.039709177393469339      10.211305783329236      30.373470048927683
   160   3      2.0758678366411765      8.2190908330530288      30.669082772399566
   161   4   -0.086317207782821259      7.8248464554652433      32.369648743646152
   162   2      1.9282607740018087      10.113303215539217      34.400982488636373
   163   3      2.0183838780406376      10.333690970210766      32.462419665923804
   164   3    0.032304018888082348      10.210648634809511      34.499139049402032
   165   3      2.1250131584659284      8.2310475464793136      34.357073337771965
   166   4    -0.28065307284180746      7.8769325283653062      36.382632888139305
   167   2      1.9817683715792707      10.031835422693225       38.44598396485241
   168   3       2.227050541439124      10.196236831082174      36.368996512375894
   169   3    0.094023151025430282      10.156600716286523      38.224180780377381
   170   3      2.1787607290147171      8.1561257350566141       38.44575211152403
   171   4   0.0015652209933855361      8.0387188861990904      40.714927006293038
   172   1      2.0632265935456431      10.118195019834864      42.508945918323619
   173   3       2.013075048845653      10.269051102357883      40.344446593710963
   174   3   -0.024338386198803474      10.141283897386543      42.405741713991837
   175   3      2.1011933937657243      8.0559492622056563      42.267693890288577
   176   4    0.026401010556981921      8.1909735424327952      44.897128862143092
   177   2      2.0954498362275231       10.17812613134358      46.695530303926894
   178   3      2.0575418982480742      10.349327433701584      44.545330768434482
   179   3    0.072806471656147065      10.121000018636073      46.458058268044596
   180   3      2.0592053315093475      8.1469639908513845      46.320628068238655
   181   4    -0.22746710939979167      11.940969304899859    0.046076415076871699
   182   2      1.8474122062690252      14.199734792491368      2.0213500518881076
   183   3      2.1357447097152438      14.284236368979931    0.089275360771433152
   184   3    -0.02817057496134108      14.245184691959437      2.1150839111304069
   185   3      2.1964403261668726      12.231681337435651      1.9854808774986896
   186   4    -0.27895991050960589      11.970644682932393      4.0370744367760478
   187   1      2.0222181561895622      14.161047565153197      6.0664615127613351
   188   3      2.1992407394781446      14.113342637485191      4.0000393646314114
   189   3   -0.042256794861357375       14.15400220188134      5.9261762206066546
   190   3      2.0246062879796627      12.098075427254786      6.3551798654526435
   191   4     0.23823912272911849      12.347426118353425      8.2154399414814314
   192   2      2.1933942330078464      14.164402536043321       10.09333426336449
   193   3      1.8319488476685104      14.227758449719376       8.146058200549783
   194   3    0.052642019047520465      14.285791566968214      10.273378009041316
   195   3      1.8250136548100366      12.180871631634263      9.9908517629470168
   196   4     0.22955944366372014      12.386756470868553      11.982674867390648
   197   1      2.0531991548096253      14.191281842723697      14.153957446074145
   198   3      2.0910912705313551       14.04091860252591      12.089656620095871
   199   3   -0.075948879709111614      14.162458518165082      14.076765620446697
   200   3      1.8280034433395462      12.090837866047703      14.305389190767347
   201   4   -0.044815033159230369      12.456946608195471      16.067640267298085
   202   2      2.0139061231025579      14.191499457436132       18.09563245013587
   203   3       1.919981556131243      14.106232516757855      16.234310003935978
   204   3    0.048937720718267311      14.221658551701086      18.420302796669166
   205   3      1.9297791027925142      12.224278338294063      18.397796386127972
   206   4   -0.059974517051426132      12.230277459638859      19.911466504882341
   207   2      2.0932360764551636      14.055593046862658      22.254242265307802
   208   3      2.0283345078121435      14.228398602310699      20.369574945210122
   209   3    0.016349260830293498      14.239862791778213      22.375917505130438
   210   3       2.005642062455312      12.126908227180746      22.298813354008846
   211   4    -0.16308411773725967      12.317675539616674      24.321812890090118
   212   2      1.9856010243068656      14.309749611526367      26.351223190622221
   213   3       2.006856494463729      14.007624328744861      24.330918362820626
   214   3    0.067814800427107746      14.106773940750603      26.346648667589466
   215   3      1.9969582578421357      12.051253191538027      26.516588223725897
   216   4     -0.2083356662578798       12.21351785896573       28.16793643620651
   217   1      2.0559078309845433      14.140693439052157      30.339443730384087
   218   3      2.1494258636918571      14.215149013838801       28.28598672809272
   219   3   -0.014888751770982474      14.209677748686742      30.434096925211275
   220   3       2.258881980224408       12.05460364186648      30.344476007425776
   221   4    -0.25509925549053758      12.054594452344006       32.38414659103374
   222   2      1.8937196104736078      14.131045306898596      34.437906669114852
   223   3      2.1939144016907113      14.161891567452532      32.475644321432284
   224   3    0.048461717794172902      14.265918390189901      34.256835470060729
   225   3      2.0673117412283193      12.230789454092633      34.503291670923268
   226   4    -0.29025873966918686      12.032470862273103      36.545456024779796
   227   2      2.0405958013230747      14.155386503944724      38.462161737753071
   228   3      1.9881096685026352      14.419676974778616      36.375800934476892
   229   3    0.083168535577535979      14.418122033815747      38.474543476200544
   230   3      1.9606580028614145      12.263861384855671      38.292451775765393
   231   4    0.041294899642879093      12.084487443254121      40.732041367090574
   232   2      1.9928748199219517      14.168315491161732      42.622336554724065
   233   3      2.1427434478298091      14.263897887722061      40.351561652216688
   234   3    0.091568488769072559      14.196950911668242      42.292071487758967
   235   3      2.0952991570206754      12.246773564268867      42.277079825116218
   236   4     0.22511653492252248      11.890146219883913       44.74237205051962
   237   1      2.0743002735987637      14.149012211999166      46.625464690259506
   238   3       2.029430082435677      14.082567243536237      44.481854357955072
   239   3   -0.021376650619017636      14.405267541914954       46.56981409105267
   240   3      1.9729633255152743      12.100018318715142      46.624763121921355
   241   4    0.084098034027163815      16.350645466214065    -0.13772897559429026
   242   1      2.0918951137104673      18.232206763625619      2.0291545875874246
   243   3      2.1065976499476129      17.955125639911696   -0.059792731700974627
   244   3    0.017419449373289795      18.163389794154376      2.1146141807040317
   245   3      2.1764517233855241      16.137186872322779      2.1501135302662582
   246   4   -0.048610055878437794      16.164990383240205      4.3222107507731442
   247   2      2.1889173895983483      18.109951004165051      6.0253260329368006
   248   3      2.1238000277938065        18.3829599272315       4.125114585179154
   249   3     0.07943449690932447      18.423535977823512      5.9964657387685527
   250   3      1.8895895239065454      16.222542356463407      5.9904206090815677
   251   4     0.37235556698898525      16.184346825695634      8.2115587154421092
   252   1      2.1413733263890582      18.220941507746691      10.138242788571505
   253   3      1.8996768540000102      18.163032046226821      8.0632609568959772
   254   3  -0.0039955063170672434      18.108709137664611      10.174866756856378
   255   3      2.0611319013485891      16.134547317060722      10.158313460794842
   256   4     0.35370120518144121      16.100668086415659      11.999745033743551
   257   2      2.1693993937960943      18.159061591651422        14.1269088702148
   258   3      1.9312418566021283      18.224569764595891      12.201748477648898
   259   3    0.010194560704576829      18.280745756772419      14.210715964004647
   260   3      1.9219894739296239      16.243592812820076       14.19431720507824
   261   4    0.097838751914521654      16.478708768844875      15.878628259886055
   262   1      2.0487020273197056      18.218721218292547      18.211586787531143
   263   3      1.8971317066171041        18.2514662515011      16.150071571032427
   264   3   -0.082600678804593708      18.199018525553164      18.394940376781573
   265   3      2.0561194002242651      16.126796475270407      18.365535624691255
   266   4     0.10101152914507691      16.162953313613372      19.922747069309843
   267   2      2.0415545274533922      18.037968593803708      22.291511867849803
   268   3      1.9845263992217856      18.212526680616744       20.34045656256755
   269   3    0.060955319215421751      18.223042621516857      22.360662489589696
   270   3      2.0568201179896319      16.139991932741847      22.434956018559681
   271   4    -0.15365991303931487      16.114874938781441      24.172804505531275
   272   1      2.0147169783077397      18.235224582160704        26.3067663855836
   273   3      2.0857086493890789        18.4320282226827      24.248656785852333
   274   3   -0.034231242464941539      18.123575688572604       26.40803245452474
   275   3       2.200908325101016      16.161289598137792      26.246512720697158
   276   4     0.12936186028376326      16.405252736343211      28.567501016825332
   277   2      2.1689775626406878      18.246784903729385      30.344963633729513
   278   3      2.0464861469581193      17.971279554853066      28.414086439227162
   279   3   0.0015095658914252498      18.156026219598303      30.207274722203508
   280   3      1.9914818135651333      16.240167415407779      30.597948378946107
   281   4      0.2145850944889546      16.174928106567052      32.285450321782442
   282   2      2.1054545668514115      18.208010315670826      34.471053094896277
   283   3      1.8953988358774687      18.371136822948657      32.360313014435853
   284   3   -0.032979998481717607       18.20626698996907      34.297513228279151
   285   3       2.009337479343051      16.284638378149406      34.185271660831752
   286   4    -0.16370523523661609      16.123474897354416        36.7194387990697
   287   2      2.0437184395657768      18.221296234268042      38.584305245171294
   288   3      1.9667628174953846      18.189913428596185      36.341095973907983
   289   3    0.073450558553183415      18.185314419754025      38.331136775071705
   290   3      2.1440730419363376      16.256732885592452      38.375078394096988
   291   4   0.0033525815402903141      16.036200736050823      40.659903917828935
   292   1       2.052204616218313      18.200674311956458      42.563431293655299
   293   3      2.0898177539451011      18.194560653969802      40.440608391213509
   294   3   -0.015210879208628675      18.064327107128882      42.446965263838344
   295   3       2.100013406664381      16.104537500663778      42.419975209677645
   296   4     0.28762903041549548      16.387874294621842      44.791040861368984
   297   2      2.1299337976328827      18.277093884218065      46.608061324196022
   298   3      1.9147798796242586      18.246027226473277      44.634410745270394
   299   3    0.098240518997949527      17.969240784801816      46.679880091908053
   300   3      2.1685313407267488      16.215172811210021      46.393058599377653
   301   4    0.015435565721740117      20.349047081268726     -0.1918207731101943
   302   2      2.1052120179116454      22.150211462061741      2.1042139264620605
   303   3      1.9746895380946219      22.297974250138289   -0.013037243012104401
   304   3   0.0069504164513483234      22.271230982232865      2.0998417144453487
   305   3       1.989374937379488      20.281479999654866      1.8940335369665982
   306   4     0.30373909715807701      20.061960909149679      4.2063918708319079
   307   1       2.049510964813861      22.302578422680813      6.0990425368006989
   308   3      2.1326261724371296      22.157003573930979      3.9949192839298244
   309   3   -0.021533975644794826      22.126220504594585      6.0625287896971001
   310   3      2.1594082731229083      20.213959366872608      6.2535909930860765
   311   4     0.33743955665442416      20.016859752700434      7.8811576987828991
   312   2      2.0084399183505992      22.138917006059344      10.167281922188543
   313   3      2.0924852186082643      22.386675793641182      8.1815844135829199
   314   3    0.055993899683646479      22.552108282163122      10.111668551347478
   315   3       1.897882058118491       20.26963648962948      10.157862683948606
   316   4     0.30339285045292785      20.014469597674747      12.304033181855681
   317   1        2.05569387550864      22.271636392539939      14.226830124884373
   318   3      1.9971680669127592       22.43911484724757      12.124032270918395
   319   3   -0.046531507089458156       22.40584071482817      14.243018699182338
   320   3      1.8975051687217894      20.199255556501974        14.1184437702462
   321   4     0.26963536122898135      20.085942314827221       15.95903703961875
   322   2      2.1150593581448378      22.192111044745328      18.200426574978003
   323   3      1.8879708375281989      22.127307458020145      16.302363216622155
   324   3   -0.056039809057383282      22.424567448184735      18.329619341699427
   325   3      1.8785115083979687      20.315000873409765      18.495424247553448
   326   4     0.17843669381229163      19.932991489161072       20.25054448112094
   327   1      2.0284956475924112      22.271972586493131      22.249125438300474
   328   3      2.0047464147807745      22.601568187885345      20.192195904565683
   329   3   -0.062167505061068988      22.466706876660492      22.394080991400372
   330   3      1.9448070037332823       20.22635845151472      22.146187966388496
   331   4     0.16715870651622705      20.090307376918577      23.971677130624506
   332   2      2.0062773031128907      22.172679514613513      26.326516881809646
   333   3      2.0879704841309743      22.233924700990627       24.35994264271767
   334   3   -0.026604231955469373      22.410962929814083       26.22039750958367
   335   3      1.9974102978089747      20.296834327953704       26.55747328230451
   336   4   -0.037427709726719029      20.101682127824578      28.657185134369758
   337   1      2.0042567064000818      22.231512040230559      30.370891365473636
   338   3      1.9295120754573862      22.521994225688882      28.280760781312825
   339   3    -0.10693029093343073      22.227215597967103      30.160110619973931
   340   3      1.8800799492598337      20.166159479850545      30.200002313912943
   341   4     0.26292661740468326      20.185384974823073      32.366085815838886
   342   2      2.1229682547606554       22.25383598001833      34.293953188258612
   343   3      1.8464456086445744      22.073437917683222      32.415833360523024
   344   3   -0.079577426752815331      22.387761812837081      34.411560154721748
   345   3       1.816060793214789       20.22204406948774      34.415041736465795
   346   4    -0.10535429997008523      20.099235162738758      36.730384618950218
   347   2      2.0524485006652347      22.257560561284063      38.292229031163288
   348   3      2.0036860653196893      22.311673910749764       36.39671008526448
   349   3  -0.0096497369886088587      22.283810125353671      38.337120719161071
   350   3      1.8792932350795073      20.258111337811929      38.404338182746407
   351   4    -0.11837060734767768      20.158301023598046      40.589037919017848
   352   2      2.0204035291756535       22.20678200257273      42.321869642773784
   353   3      1.9068228008113468      22.243348953095097      40.454273723447322
   354   3     0.11403904309732295      22.297265395914202      42.760581804070895
   355   3      1.8952921580460995       20.27427683674258      42.548339199033158
   356   4     0.20412916345834348      20.370716007791522      44.386610802121993
   357   2       2.079357534741924      22.359852796547049      46.620665919966065
   358   3      2.0715797214977263      22.045406404262586      44.673533248062057
   359   3    0.055547068672676496      22.201471747738616      46.651865923936057