(written by ASE)

8640 atoms
4 atom types

0.0      48.599999999999994  xlo xhi
0.0      48.599999999999994  ylo yhi
0.0      48.599999999999994  zlo zhi

Atoms # atomic

     1   4     0.22266399423338751    -0.13147472073237398     0.24350985461188979
     2   1      2.0202040466632232      2.0264925243457896      2.0951879709678711
     3   3      2.1331232923633849      2.0019734722623155    -0.13693520765966771
     4   3   -0.027129194582723927      1.9392057461164953      1.7619617667492635
     5   3      2.1480856626077998   -0.048016472035988515      1.9898484938281904
     6   4     0.10074909395764199    -0.23206451548459794      4.2690753045387506
     7   2      1.9015629221654449      1.9911439455587767      6.1266736142148508
     8   3      2.1162864744405305        2.16317057179646      4.1463557063256351
     9   3     0.04345391965189653        2.10740944865789      6.0799434537997499
    10   3      2.0287689413988987    0.041891659809976597      5.8769771800976454
    11   4   -0.010928265414956603    -0.36637221687088167      8.1346259849562514
    12   2      1.9514724918313993      2.0387283046404665      10.181302993848691
    13   3      2.1778935350693449      1.8649241604650033       8.079343664316081
    14   3    0.047974981531085086      1.8032786950341957      10.079013535624766
    15   3      2.3541019538231609    0.094041995517576457      10.227095475134506
    16   4    0.095841132541391469    -0.28176279986107056      12.220127045980213
    17   2      2.0586375094717231      2.0487345344577603      14.352182286837882
    18   3      2.0379002649266438      2.1446168745822023      12.072577472970682
    19   3   -0.060062733479837149      2.0127191325108003       14.17752985903606
    20   3      2.0006552079574891     0.10027584338337196       13.99028570127218
    21   4    0.040746536298833229    -0.34680240165169179      16.223063612308998
    22   1      1.9775791326761809      2.0602282964249921       18.27912004724212
    23   3       2.047654121002493      1.9794004649186174      16.213903203844289
    24   3   -0.081790213402441636      1.9343881366856679      18.448193242967267
    25   3      2.2575225809174282   0.0021557874358712503      18.318136912809102
    26   4    -0.11807316179125479   0.0065425961871654554      19.989477574458189
    27   2      1.8692353355255027      2.0561862660197541      22.258373473836581
    28   3      2.2225116344012799      2.0181960274995161      20.365399434691131
    29   3    0.016881039944598622      2.2348491832583379      22.241481922304441
    30   3      2.0593118613860066     0.14788684955724465      22.495285631483139
    31   4   -0.077918633874986917    -0.33479962098986493       24.36267157945133
    32   2      1.9150001049124963      2.0090193875301643       26.25282090316156
    33   3      1.9810897240319689      2.2385137684264875      24.364924804217033
    34   3    0.023865451719721532      2.0877999326553343      26.428960726326817
    35   3      2.0820207157649206     0.13328028906288539      26.248621986860282
    36   4     -0.1434997844975533    -0.36579121502622897      28.271110336250885
    37   2      1.9312790584292396      2.0049989304704714      30.234832351989869
    38   3       2.125242897451455      2.0334243853266836      28.330313360750317
    39   3    0.057479107027446914      2.1845852616238179       30.39571827465749
    40   3      2.0174734853805436    0.096767197980363887      30.473771978589202
    41   4     -0.3583204712010728   -0.046947868968659053      32.476844900739721
    42   2      1.9615375116285059      1.9249464361285897       34.39803200433915
    43   3      2.0463884522030718      2.1571985398770916      32.478838906212388
    44   3    0.081697496410482573      1.9117172187056768      34.439295560380124
    45   3      2.2629305934899731    0.055787914672305566       34.41891778961628
    46   4    -0.35375962860079913      -0.191592562143724      36.334343734738937
    47   2      1.9527200891401375      1.9192549163299295      38.391695630295452
    48   3      2.0742110871169137      2.0731761066526047      36.442820768570165
    49   3    0.074577955816055377      2.1412058334257589      38.527547329003319
    50   3       2.067421993939643    0.066959383060606698      38.511539482278941
    51   4   -0.090818390150557191    -0.25618094111142137      40.534524628212473
    52   2      2.0570613769590684      2.0410548343059025      42.479613706820373
    53   3      2.0975543980098874       2.177341861895556      40.477053648956314
    54   3    0.032180703408472192      2.1767688919693855      42.420024104333358
    55   3      2.0398472109522325     0.16630472397091409      42.555928811587243
    56   4    0.095391654725504288    -0.34917037060905448      44.503625109273777
    57   2      2.0408865321492784      1.8972352501812664      46.532896558344625
    58   3      1.9593954718876163      2.3005861477935117      44.472599757651352
    59   3     0.10643701000648061      2.2172334132328917      46.539229673313471
    60   3      2.0472126309308547    0.059406106605427701      46.352309465036804
    61   4    0.015649477115409156      3.6769753495829192    0.088077048264665003
    62   2      2.0770572332604926      5.9830464264883245      2.1149725717456853
    63   3      2.0043401411115793      6.3543188037675646    -0.10544686149002003
    64   3    0.043591698719173101      6.2340199840544877      1.9481816344238267
    65   3      1.9966129262561101      4.1163609380760864      1.7290964159837796
    66   4    -0.16621951065861482      3.9705927144866724       4.387238042817275
    67   1      2.0079416340280489      6.0533688432561892      6.1209603894847016
    68   3       2.123811177537609      5.9175188403504704      3.9926442456767064
    69   3   -0.052546978664128774      6.0168724080351748        5.93526625124011
    70   3      2.2140221188463749      3.9602065654956116      6.1724876471229422
    71   4    -0.15759089721135919      4.2652548979667566      8.2963676802696043
    72   2      1.9384394053358476      6.1931620345502312       10.15124267147624
    73   3      2.1559399588768366      6.1125522900129932       8.182400397916858
    74   3    0.044752221969090601      6.1358106710074294      10.070439626923953
    75   3       1.870225226810641       3.983009332803666      9.8881852041411094
    76   4   -0.021175770514047676      4.2993270446791971      12.247300580118647
    77   1      1.9836495537561381      6.0781286967034891      14.196695719619754
    78   3      2.0004843125088385      5.7931576964195708       12.05578672208104
    79   3    -0.10201487820908745      5.9911486156227074      14.141117361128311
    80   3      1.9425165665275279      3.9902559220897604      14.197074874431214
    81   4    -0.23648767146472627      4.3263899109050685      16.163348505490831
    82   2      1.8404693554252261      6.0975756940941306      18.283736216968133
    83   3       2.094631107962718      6.1213618297810983      16.289717840316822
    84   3   -0.010803522376373232      6.1840049409510494      18.319011351122494
    85   3      2.0231097875185835      4.1401415787495957      18.247625575358434
    86   4    -0.33708769651410125      3.9383577244574326      20.105345770294498
    87   1      2.0015685678269191      6.0783778934180646      22.252158603645483
    88   3       2.260393749158685      6.1116739414303591      20.195653869978329
    89   3   -0.045719972754960279      6.1184250667242388      22.298904701844158
    90   3      2.3136641918953496      3.9974911040816563      22.277004152789367
    91   4     -0.3867697465702899      3.9664801152782818       24.25908865181059
    92   2      1.9433337366231909      6.0689928958188126      26.309906490280962
    93   3      2.0955958373468246      6.0488789026707694      24.391864720945257
    94   3     0.03636261552650772      6.2346877479712237      26.456773772688297
    95   3      1.9834804339209564      4.0900007049617093      26.514846232876387
    96   4    -0.36554872104781549      4.0184705835328423      28.179195826420219
    97   1      1.9460727596920449      6.1005348767304968      30.391298948035963
    98   3      2.1155293246737736      6.2068262326583117       28.34932555545408
    99   3    -0.10900903863763466      6.2625402364020202      30.410859540257196
   100   3      2.2352335873838336      4.0233390945897805      30.352576506645583
   101   4    -0.31592317223884825       3.835833095072398      32.332579761735452
   102   2      2.0083835714128302      5.9240896030202714      34.410690878215618
   103   3      2.1085515193703155      6.1235774793701943       32.50659338346685
   104   3    0.087564390696312888      6.3114779556305169      34.407832982317785
   105   3      1.9380528814007678      4.0593968291095583      34.548485198956293
   106   4    -0.39001517884090203      3.9554034950832464      36.347735637976747
   107   2      1.9330834865571482      5.9959609708768173      38.460303017099967
   108   3      1.9584781088604897      6.3163056398118229       36.46621577089126
   109   3    0.039294927132949423      6.2672590658976004      38.540534361599597
   110   3      1.9880744873240297      4.1378419724875641      38.367292635570514
   111   4    -0.17742793597582288      3.8434409070474098      40.518260891556878
   112   2       1.968408078277192        6.08232693934767      42.587921806529174
   113   3       2.188791447102993      6.1815792043206939      40.366878317120062
   114   3    0.094569552310468652      6.1926747388770664      42.309213831271293
   115   3      2.0753282748389994      4.1731534623941906      42.363778094341953
   116   4      -0.082708993053002      3.8899809331577271      44.725707962838136
   117   2      2.0599086175734382      6.0466574614204092      46.613696581326984
   118   3      2.0528085573653478      6.1088768391411001       44.47325733466991
   119   3    0.083063116548381624       6.218286414192054      46.399964881256388
   120   3      2.0509563594362379      4.1725533019058432      46.615029139593823
   121   4     0.14756095191828489      8.0770421595534803     0.27336362406962156
   122   1      1.9959452427672293      10.149462930282811      2.0551389701163751
   123   3      1.9878915064084886      9.9494761163195999   -0.032650373383554185
   124   3   -0.071185112984229082      10.238460765438401      2.0227874960876875
   125   3      2.1266994850591612      8.0508094364611882      2.0929425785607436
   126   4   -0.052577487593308402      7.9545687969044687      4.4405732680275065
   127   2      1.9962860923104691      10.202323460965959      6.0521758723948142
   128   3      2.2593260239167066      10.273406100443474      4.1164909057219825
   129   3    0.047890306545122066       10.07243227506461       5.930318819898595
   130   3      2.0641120484647444      8.1191382835558095      5.8682190164702046
   131   4    0.025386076033667698      8.3358794170810082      8.0803318731886478
   132   1      2.0316784547280062      10.139958153285962      10.156243945414126
   133   3      1.8644749704113983      9.8352770496386306      8.0543818892200214
   134   3   -0.098151337538750008      9.8039124170520839       10.11780362031122
   135   3        2.15960596325754      8.0392885410069805      10.301928173894158
   136   4     0.23274879568814499      8.3793401096515403      12.231098077512879
   137   2      2.1104586805063335      10.224441833431971      14.181594388933378
   138   3      1.7763115425827181      10.195805699311324      12.227687029418792
   139   3    -0.11853458420114756      9.9313433491298024      14.257063631030752
   140   3       2.095512867493027      8.1323064962464979      13.991707399703536
   141   4    0.001063440648884532       8.436418818929333      16.264880568188122
   142   1      2.0243685723821851      10.176058453452569      18.210625190320219
   143   3      1.9727309393877233      9.8853584163384003      16.130051172308878
   144   3   -0.063421392535457338      9.9358691220978184      18.209159930958077
   145   3      2.2439480791810107      8.0475946485770056      18.253587462400173
   146   4    -0.28750709728293933      8.3231419261485637      20.101272753577248
   147   2      1.9597940651592345      10.089121828678236      22.212197324198613
   148   3      2.0877467108567229      10.025252211713767      20.337374895434802
   149   3    0.092067703369727402      10.025183072362513      22.402620564503469
   150   3       2.169766806538219       8.162926415179145      22.421437224340508
   151   4    -0.18619218290344233      8.0883757223715183      24.128919883491331
   152   2      1.9649334874195112      10.144587535974784      26.275916853673277
   153   3      2.0731402251389093      10.138487231502273      24.396446150900907
   154   3    0.066737624072443394      9.9967094611397957      26.456021217971021
   155   3      2.1627561959739849      8.1131023773780253      26.342698562306232
   156   4    -0.15440383764989751      7.9412627600875831      28.284313785468782
   157   2       1.892320662392164      10.119997685991075      30.302692593307299
   158   3      2.1376400283791521      9.9536337103349091      28.410889287128029
   159   3    0.039688772315545039      10.210452736511504      30.374234912877071
   160   3      2.0752350881069068      8.2183992482114281      30.670332042828683
   161   4    -0.08740711522336729      7.8235476278808296      32.369623687347627
   162   2      1.9283562115031498      10.112080668575688      34.401402125351048
   163   3      2.0185779116044222      10.333286077383912      32.463358529506564
   164   3    0.032377651991713191      10.209706613874435      34.499132818546549
   165   3      2.1254934155635881      8.2299511762108146      34.358336522427784
   166   4    -0.28080133343754476      7.8751023088627257      36.383092745641967
   167   2      1.9809723289211678       10.03127492788599      38.445448094022524
   168   3      2.2270177775685012      10.197252194410439      36.369836764562017
   169   3    0.093133008973976555      10.157149934638781      38.224720544258858
   170   3        2.17718122392067      8.1558497266139032      38.447004563781661
   171   4   0.0011954655130744468      8.0395747403196385       40.71585586568812
   172   1       2.061749389325179      10.118483215689892      42.509683735931979
   173   3      2.0115478474522521      10.270180068122821      40.344889906889598
   174   3   -0.025769191010999278      10.140332377419906      42.407499584587711
   175   3      2.1005014269830098      8.0562336093532601      42.268059148181031
   176   4    0.024042941420610447      8.1939091637112345      44.897915011078695
   177   2      2.0942599834618512      10.176325359506828      46.698155446143694
   178   3      2.0598831249037759       10.35384914482897      44.546062358860503
   179   3    0.071395723954968363      10.122011900016691      46.452633486076685
   180   3      2.0584231445605141      8.1508063786992384      46.321333074714289
   181   4    -0.21636654366242716      11.941559018075624    0.037762927951038951
   182   2      1.8415489087488899      14.203375022286618      2.0320826585748177
   183   3      2.1238038062523632      14.289904261866608    0.096537581877564144
   184   3   -0.034354815819414367      14.243273358962027      2.1314942852196928
   185   3      2.1976615648269648      12.235441932586607      1.9901713646102581
   186   4    -0.23764479192813301      11.917653779368738      4.0036355397819641
   187   1      2.0224594393919695      14.160415608260346      6.0657151085124434
   188   3      2.2112246018769466      14.109942831243176      4.0037622648436857
   189   3    -0.04148698409477853      14.152091017456415      5.9291300015289954
   190   3      2.0263352167238735      12.095175608317891      6.3673459696075208
   191   4     0.24783350848215849      12.347553954863047      8.1999267692665914
   192   2      2.1906482554972451      14.167185854084773      10.088173990996033
   193   3      1.8159031910444687      14.232316731992647      8.1453133988878488
   194   3    0.057907878863989105      14.274838184192697      10.303788034648942
   195   3      1.8344326691916288      12.180895428896999      9.9807644889796325
   196   4     0.21749277554058746      12.409587377327108      11.977838863242296
   197   1       2.050327521922588      14.192978809182627      14.151371514034986
   198   3      2.1174315726060327      14.035018838157825      12.089288914302237
   199   3   -0.081386878179213223      14.144772621251379      14.060477006725407
   200   3      1.8383825982264155      12.091055801966597      14.309574312984841
   201   4    -0.03833377950452653      12.457253409675042      16.060411889158775
   202   2      2.0138122274197268      14.190877589969546       18.09730071167721
   203   3      1.9176811921040549      14.104253325087305      16.235074058707731
   204   3    0.047143677281586506      14.224806654421839      18.419018676408985
   205   3      1.9267216394461011       12.22439171956859      18.401036779576202
   206   4   -0.063512433845845206       12.23353873308788      19.908757305278119
   207   2      2.0926704781440311      14.055243857663905      22.254030952030249
   208   3      2.0266739920101795      14.234081627731802       20.36883917481568
   209   3    0.017679698128324206      14.240025802048816      22.375250559840296
   210   3      2.0078679889372446      12.126954367997811      22.293169030498415
   211   4    -0.16539954559787418      12.319407860202928      24.321731326582686
   212   2      1.9845032879812849      14.309308494624043      26.350048425218635
   213   3      2.0101675248251505      14.004371879103608      24.329719543920721
   214   3    0.068069110208593506      14.106024614623951      26.344817833923315
   215   3      1.9965669890851006      12.051068702627775      26.517366318839215
   216   4    -0.21011984093036287      12.209912700808255      28.167019883020277
   217   1      2.0559954348860505      14.140602265690841      30.338445287720536
   218   3      2.1491938424579478      14.218747007065135      28.285223391804216
   219   3   -0.014928304961978825       14.21377215934915      30.433618294006976
   220   3      2.2580456714879036       12.05444599854374       30.34452392641839
   221   4    -0.25561412257932653      12.052193081956071      32.384379683195618
   222   2      1.8948668674036246      14.129994927100871      34.438962188171772
   223   3      2.1934458924961984      14.163288311367259      32.475454027234065
   224   3    0.049477637117347886      14.271493967105114      34.255433632122106
   225   3      2.0649328127558224      12.230717652475398      34.503384929939884
   226   4    -0.29094179011743065      12.032156527091935      36.546013159021555
   227   2      2.0402250626104048      14.154420898576067      38.462483568164664
   228   3      1.9875164893155195      14.421336854424203      36.375987036421108
   229   3    0.082345286301594767      14.416450249701475      38.473126376958831
   230   3      1.9607415326593396      12.263652792425381       38.29262816372426
   231   4    0.040977281422779933       12.08541220165772      40.733072606058819
   232   2      1.9900585384404028      14.170281831207657      42.623019555988492
   233   3      2.1414328808794449      14.264443467444762      40.351655338999372
   234   3    0.089848142953292506      14.198294544764984      42.293088523062082
   235   3      2.0943778217599691       12.24800091142183      42.277473650141296
   236   4      0.2252052934922032      11.890648488664418       44.74314801852082
   237   1      2.0717498681696389      14.149511201746071      46.628552618934478
   238   3      2.0286514455231641      14.084990936459203      44.482842940511723
   239   3   -0.024309783467958049      14.410317281309311      46.573995549219362
   240   3      1.9638393385650366       12.10081643690051      46.628714200606403
   241   4    0.088602406365821021      16.344062485041007    -0.14471850654142834
   242   1      2.0913756328682003      18.231741623527988      2.0281523091961349
   243   3      2.1003508826668846      17.953301836755148   -0.059106733783445102
   244   3    0.014838469441334724      18.168656295451434      2.1371185281663077
   245   3      2.1701765191110884      16.138071759504591        2.16069608814129
   246   4   -0.042550447298939573      16.196719887820198      4.3387361733411058
   247   2      2.2014834449038378       18.12012781133383      6.0244415961527533
   248   3      2.1313174695547099      18.384124930372938      4.1251461011409631
   249   3    0.076999015006092991      18.417832824502966       5.980795601071522
   250   3      1.8874400350754823      16.228692560850511      5.9931953081832612
   251   4      0.3730104383886349      16.201490659219463      8.1838177187572114
   252   1      2.1410222759946778       18.22155303675439      10.132782804063901
   253   3      1.8853763091622668      18.161203079838526      8.0598223406300402
   254   3  -0.0044236951888105489      18.109099583692917       10.18684146429726
   255   3      2.0543825137473855      16.135669932475132      10.151082348896304
   256   4     0.34946373850774309      16.113655401919598      11.984738325654069
   257   2      2.1726102886000023      18.158901838867855       14.12358616282274
   258   3      1.9368473523024758      18.222403547510531      12.200019310276124
   259   3    0.010991685887914372      18.280070248040751      14.211475514251031
   260   3       1.924354605067367      16.243568660095676       14.20140208099594
   261   4      0.1069768287383852      16.487371027558588      15.880045727466076
   262   1      2.0517544443736737      18.221728377324212      18.212574345695085
   263   3      1.8979419414958432      18.253143656067998       16.14999628600588
   264   3   -0.082976263866554434      18.195240492378534      18.385626903682173
   265   3      2.0572952084794789      16.127726242589098      18.361842607626709
   266   4     0.10910326950072968      16.162524277568398      19.926495172356699
   267   2      2.0413206221771829      18.038248117267123      22.289220679067014
   268   3       1.972337160791036      18.199307570476002      20.340223858793141
   269   3    0.059353040059580912       18.21910963784428      22.368273758032231
   270   3      2.0609290682646595      16.140980342134501      22.439423144530341
   271   4    -0.15849986074656591      16.119200561077232      24.169606502532869
   272   1       2.013160365213106      18.234512942777215       26.30554654221044
   273   3      2.0882146622139874      18.438669680504777      24.247176210507366
   274   3   -0.034645361386405407      18.126297500509747      26.404674967967662
   275   3      2.1998940981824586      16.160805183486509      26.243212108336486
   276   4     0.12635559828178786      16.404204275074502      28.567479889785798
   277   2      2.1680217665944688      18.245701817158899      30.345002575594233
   278   3       2.045109507774316      17.967029723313978      28.412860266439893
   279   3   0.0027219214232908364      18.157668705952876      30.206444085957045
   280   3      1.9931819864677662      16.241324805805927      30.599545837248574
   281   4     0.21151212198920302      16.163161594590122      32.287445764834764
   282   2      2.1044763936727073      18.208001198744412      34.470706702404961
   283   3      1.9030973276327001      18.377918404056796      32.360603876974785
   284   3   -0.032462184225886738      18.203121862629068      34.294687187282591
   285   3      2.0126959081484821      16.285766421135548      34.184011845326665
   286   4    -0.16537126622073489       16.12167805046052      36.717713374773126
   287   2      2.0439616213087173      18.219305545264238      38.579970973123849
   288   3      1.9658753962317819      18.190025856386807      36.341421368544111
   289   3    0.072576428122400435      18.189972310178103      38.331618713044378
   290   3      2.1413437015062993      16.257586956840647      38.377310629055671
   291   4   0.0028943821972390086      16.039038178390424      40.659578937243325
   292   1      2.0514531490086183      18.199193096739677      42.565156469568386
   293   3      2.0831526877361761      18.202687601193066       40.43881460862243
   294   3   -0.019837498338562822      18.066156412141829      42.426874171317209
   295   3      2.0961377471624161       16.10594911297073      42.417590587105749
   296   4      0.2823546869167024      16.391251003612396      44.792998297327514
   297   2      2.1331519912499246      18.273904943005931      46.610567204349444
   298   3      1.9045778108496472      18.251180959266652      44.633917824402332
   299   3    0.095049567991890516      17.966099850835118      46.678849217707885
   300   3      2.1640600689079483      16.216559494411044      46.388438959780899
   301   4    0.011542156925283804      20.340790612825348    -0.19878760688125779
   302   2      2.1067544798484605      22.149844165103698      2.1024209396969109
   303   3      1.9754805851250579      22.298586197555256   -0.013081644920961729
   304   3   0.0064203955096565181      22.275006025069764      2.1046267173226814
   305   3      1.9853182047007274      20.281227282925528      1.8960783986650667
   306   4     0.30757939236931792      20.061140192318305      4.1949321251787923
   307   1      2.0524619411694225       22.30274220104668      6.0942522181919614
   308   3      2.1353640494215966       22.15951734224636      3.9933798536457896
   309   3   -0.018512707740627167      22.125938853456908      6.0563880078822114
   310   3      2.1593344557251126      20.211500460564991      6.2545856454474551
   311   4     0.33258843893539181      20.015119177196567      7.8736386446895343
   312   2      2.0037818981951516       22.13833505561384      10.159202127907825
   313   3      2.0923837972954495      22.384241515461554      8.1785621182672141
   314   3    0.056730378695485854      22.554109909596018      10.111122538289038
   315   3      1.8939050537626003      20.268958538148802      10.155630457672592
   316   4     0.30375572847259874      20.016266663067668      12.300957126296826
   317   1      2.0557673934911564      22.273101932998728      14.225292393520956
   318   3      2.0002381007764716      22.440999560855317      12.120257146229159
   319   3   -0.047383460954766414      22.393637901203991       14.23814605265394
   320   3      1.9008804683208287      20.198327585189105      14.115589465261797
   321   4     0.27886810899189146      20.095758289510407      15.956072327178155
   322   2      2.1170713105230656      22.193868667033065      18.200290161073848
   323   3      1.8923101434451908      22.109886587530038      16.302120049526621
   324   3   -0.060392467352179402      22.414674971687646      18.328122263128332
   325   3      1.8801767907723432       20.31526786661049      18.504995087378724
   326   4     0.19237983930677383      19.946445660585901      20.257412085597313
   327   1      2.0288639011174627      22.271950472182109      22.251099145199177
   328   3      2.0023249171321562      22.603399173126949      20.192625733471864
   329   3   -0.063164334828824775       22.47077782698339      22.388859649876661
   330   3      1.9327530479080168       20.22738183920054       22.13136073066401
   331   4     0.16358533304546219      20.086517016560357      23.974542778008392
   332   2      2.0039162711139591      22.172324577190476      26.325965576289256
   333   3      2.0878865291738591      22.232293972919397      24.358974990847301
   334   3   -0.027163065934745687      22.410565140318113      26.219226459799909
   335   3      1.9977585287291868      20.296445179899443      26.556752126585309
   336   4   -0.036697590107091352      20.100647413014087      28.655075265582504
   337   1      2.0032680132974621      22.229242024206918       30.36980235602546
   338   3      1.9296726075539334      22.522763982742973      28.279786713866464
   339   3     -0.1073110306477698      22.226226976369045      30.159296596291458
   340   3      1.8818843476860454      20.165942938819843      30.193898447507202
   341   4     0.26340671907918078      20.184016429360216      32.364842893228811
   342   2      2.1234025919885458      22.252146277542419      34.292674392830861
   343   3      1.8497884092067498       22.06962600338796      32.414756271091647
   344   3   -0.078362398783809281      22.399768734681409      34.397294889913567
   345   3      1.8100825432991356      20.223257999366361      34.418599083451859
   346   4    -0.10412542965293713      20.100097824265347      36.734554891528141
   347   2      2.0526851590939814       22.25650148501035      38.291807951514819
   348   3      2.0027907525329938       22.31173913721203      36.396396388313256
   349   3   -0.010590627885522817      22.280951570215148       38.33640343436349
   350   3      1.8823087699983752      20.259204179681507      38.402656531221879
   351   4   -0.075086580890293117      20.127936025818347      40.629515564527097
   352   2      2.0193180538214088      22.212366660905197      42.323423779378352
   353   3      1.9081784545005984      22.244159567743811      40.455356145858609
   354   3     0.11282980657975276      22.302940025839099      42.761583025056026
   355   3      1.8764846579889216      20.271690927096799      42.535647307027126
   356   4     0.20732859932231834       20.36620440240949      44.397025489879795
   357   2      2.0790595121035529      22.358903034917532        46.6209505626409
   358   3      2.0691678903706534      22.037953371951549      44.672906729373445
   359   3    0.055011817086506022      22.200815923696275      46.652828541485555