(written by ASE)

8640 atoms
4 atom types

0.0      48.599999999999994  xlo xhi
0.0      48.599999999999994  ylo yhi
0.0      48.599999999999994  zlo zhi

Atoms # atomic

     1   4     0.22056925678427242    -0.13867333723290759     0.24016903255494462
     2   1      2.0206327827022728      2.0236831184625093      2.0937840259703178
     3   3      2.1341567537328521       1.998818009046653    -0.13705865826102895
     4   3   -0.026863146637769928      1.9372751534642507      1.7623889378411002
     5   3      2.1525115050455872   -0.052742732743496661      1.9912152278912096
     6   4     0.07767012513797858    -0.21810813236232202      4.2852943350757684
     7   2      1.9035871558815436      1.9904587376926461      6.1261784954736402
     8   3      2.1201906183919661       2.162170690033014      4.1452151437692963
     9   3    0.044149049145037263      2.1035068850961927      6.0747916881473101
    10   3      2.0263325077947862    0.040521359344200147      5.8735799873046552
    11   4   -0.013219676409321148    -0.37049467801007913       8.137186894359326
    12   2       1.952762475730706      2.0353728716553912      10.179409235381163
    13   3      2.1775453192907919       1.861232748205419      8.0771956625026817
    14   3    0.048635740959454034       1.802122807524525      10.076670907306125
    15   3      2.3497319197797149    0.089617671078099245      10.225566740287134
    16   4    0.096417703056686122    -0.28880664716620302      12.217886524497453
    17   2      2.0606714035676252      2.0446740076150816      14.352745592860456
    18   3      2.0401996095408257      2.1411622058348656      12.069384138389218
    19   3   -0.059125208539352964      2.0114587874110308      14.173004479777257
    20   3      2.0013686414199858    0.098521665808690859      13.989240695277269
    21   4    0.041155567818160856    -0.34857663182715387      16.222153809822785
    22   1       1.978215578009529      2.0598158781770448      18.279939788057426
    23   3      2.0476075963055584      1.9807502081237787      16.214136342342137
    24   3   -0.080165450111979134      1.9314650302615004      18.450498449009938
    25   3      2.2591151999283281   0.0023172479114928713      18.318056260681352
    26   4     -0.1170603971079936   0.0047769486337831315      19.991840436085862
    27   2      1.8698208394392473      2.0570186391625103      22.258495022308484
    28   3       2.222095507523226      2.0168096860003732      20.366102723150188
    29   3    0.017413352651302502      2.2356055952395644      22.242861010720215
    30   3      2.0592097040807067     0.14803310686723992      22.496854921746134
    31   4   -0.079641962040658473    -0.33389676851784461      24.364198452521887
    32   2      1.9144712613020896      2.0076793428161137      26.252730784069986
    33   3      1.9812429031532306      2.2397940583479761      24.365610697950537
    34   3    0.024171729051682751      2.0845441289994464      26.429406642361602
    35   3      2.0840137501737441     0.13294447158671244      26.245243187919435
    36   4    -0.14599278979197128    -0.36405032355280642      28.269163207495829
    37   2      1.9321860147193799      2.0033560334587603      30.234770004728063
    38   3      2.1227292068974926      2.0278707318725671      28.329741015517261
    39   3    0.056602024456773384      2.1871522360666069      30.395232791640126
    40   3      2.0155546195145808    0.097353763730354675      30.478187401812015
    41   4    -0.35978928358787449    -0.04643430225844622      32.476050658122503
    42   2      1.9604203333177863      1.9257485786304125      34.401399185742996
    43   3      2.0444508682146898      2.1612877623813791      32.480358071371583
    44   3    0.080887591483662161      1.9131333254701637      34.439928805791283
    45   3      2.2632056931019155    0.057936155866697953      34.417453276681648
    46   4    -0.35287402528511347    -0.19133276994728951      36.333199463145469
    47   2       1.951444594148642      1.9199595485340157      38.393959235094208
    48   3      2.0744408691380753       2.075069780075673      36.442474570617236
    49   3    0.073167811495006507      2.1411714374564408      38.528731797250636
    50   3      2.0670265787804438    0.067846654162101325      38.511163472981956
    51   4   -0.089255800738592725    -0.25921636242155266      40.535087474818141
    52   2      2.0552307721702676       2.040462822003414      42.479843983259713
    53   3      2.0971964615849865      2.1783576650302767      40.476291730154387
    54   3    0.031066531534230793      2.1780590196423759      42.420230399675802
    55   3       2.038931383014305     0.16600181872788042       42.55418810658589
    56   4    0.092030855717803547    -0.35089600511323077      44.506723726723123
    57   2      2.0427980594043182       1.895099868135717      46.533022097209788
    58   3      1.9593113263180846      2.2996094476740372      44.472322030541235
    59   3     0.10815009004190042      2.2172123551183542      46.538790981701425
    60   3      2.0461474358700049    0.057601235325912201      46.351810988132051
    61   4    0.016676978389257763      3.6743118676747994    0.088012110317951836
    62   2      2.0779308560723733       5.981819920626279       2.113566762612586
    63   3      2.0064829864987552       6.356695630525933    -0.10589906032667279
    64   3    0.045657226834706161      6.2284056319649679      1.9456398777710209
    65   3      2.0015534701064146      4.1152662274196548      1.7249247652262614
    66   4    -0.16725958144219244      3.9692605648192831      4.3871943666891573
    67   1      2.0092073539377804      6.0527986496014226      6.1197307762783311
    68   3      2.1257930583806925      5.9121981063935571      3.9915479015616468
    69   3   -0.051063262092409155      6.0135230150457479      5.9327470922823862
    70   3       2.214873476105883      3.9594184670997121      6.1724892488113738
    71   4    -0.15660095612150063      4.2628059281210255      8.2992102876136986
    72   2       1.940377104117945      6.1919240687303576      10.149625228215891
    73   3      2.1588470646166327      6.1129046817680965      8.1801056917877073
    74   3    0.045727658979812097      6.1403254070575892      10.061086528691494
    75   3      1.8736454110457621      3.9804024313332778         9.8851550250016
    76   4  -0.0092984593450558487      4.2935343040471814       12.25812230656665
    77   1      1.9853934322531739      6.0767986484606578       14.19680385720549
    78   3      1.9977894715858668      5.7905356829726129      12.053177290462878
    79   3    -0.10095855673849946      5.9847410357924593      14.141963492439816
    80   3      1.9531098433245357      3.9860515134177588      14.177293314165725
    81   4    -0.24110556553162152      4.3266183440958708      16.167511319632556
    82   2      1.8406287386585947      6.0959475879642246      18.285644726661616
    83   3      2.1016092734280103      6.1167159768123991      16.290472099318446
    84   3     -0.0105756094516971       6.183475757742821      18.314421145180646
    85   3      2.0202190004031593       4.138648319231403      18.251785144394965
    86   4    -0.33684129452459505      3.9381649129135292      20.107489829917565
    87   1      2.0026032881397837      6.0792896283584428      22.254903462378106
    88   3       2.254158020818589      6.1138369678190649      20.198225298118057
    89   3   -0.044280479563538588      6.1123923495870978      22.304417267726564
    90   3      2.3154821889114263      3.9979279810710033      22.277111519221084
    91   4    -0.38663080682889184      3.9661147386683773      24.258550556395917
    92   2      1.9406776145133819      6.0665027301543697      26.314448779552322
    93   3      2.1081556746811567       6.050438251144044       24.39605466979949
    94   3    0.037871204166155227      6.2467352274563801      26.445052837358109
    95   3        1.98350870845088      4.0918873039421548      26.516112072308385
    96   4     -0.3729672505265369      4.0156291426716253      28.189985865688527
    97   1      1.9487589423028768      6.1050906797048166      30.391309707753233
    98   3      2.1083562299664065      6.2137343515006709      28.348470160101012
    99   3    -0.10851859774091936      6.2712926383196033      30.418991695199225
   100   3      2.2337160766321702      4.0241845315185625      30.351414374584156
   101   4    -0.31247635995827955      3.8356938983018147      32.329507149077799
   102   2      2.0074065766026443      5.9284841737230405      34.409583086393837
   103   3      2.1226412926407363      6.1180114689389686       32.50406760255602
   104   3    0.089719010123135559      6.3195320076568109      34.401453861567163
   105   3      1.9374032821169977       4.063981482254106      34.549180548805808
   106   4     -0.3926846548499438      3.9557788877556659      36.348220530454824
   107   2      1.9292933911723282      5.9968917144646738      38.460903402848999
   108   3      1.9591341944498755      6.3228721449676346      36.464128078442677
   109   3    0.038579370369211538      6.2668920181004788      38.540344680308031
   110   3      1.9871220209421374      4.1385726005516705      38.364102189190028
   111   4    -0.18057473845368566      3.8444828913534113      40.520520972012712
   112   2      1.9663248383867662       6.082084745440441      42.587909243754403
   113   3       2.189832393232864      6.1792709321868298      40.366962330178488
   114   3    0.093210346959626655       6.191115315051321      42.308410744054022
   115   3      2.0760311768914219      4.1730211041791403       42.36536287157405
   116   4   -0.081457562960377136      3.8851328488462906      44.722480192688657
   117   2      2.0604489561028192      6.0449242775696792      46.610929171265333
   118   3      2.0512036336862915      6.1105796578883851      44.474173814213671
   119   3     0.08513503915456247      6.2232127069831851      46.406068631156344
   120   3      2.0540132183481821      4.1719900052570029      46.615701423038921
   121   4     0.14068766282466486      8.0592498824927947     0.25398205452764666
   122   1       1.998620916602651      10.146396514677907      2.0517483390429718
   123   3      1.9713427195798756      9.9555647125530342   -0.032848431977030121
   124   3   -0.068846334767543635      10.257852404827011      2.0467492415665935
   125   3      2.1294785831727951      8.0495754623278533        2.09667307278588
   126   4   -0.049301683669571564      7.9509882484557473      4.4395274166807255
   127   2      1.9991403648035599      10.196774149948586      6.0572404147652863
   128   3      2.2617577503636395      10.283265994468239      4.1155314720991525
   129   3     0.04690591806990483      10.084535075199133      5.9128872602375662
   130   3      2.0599360385056076      8.1193556817369252      5.8570027452632756
   131   4    0.015114057395162191      8.3215024634118162      8.0964992018050772
   132   1       2.029198008577441      10.140338576651862      10.153922477252809
   133   3      1.8569244571670314      9.8259627231985593      8.0513068995743833
   134   3   -0.099698760520040924       9.800220638546385      10.116114197261798
   135   3      2.1610814616708178      8.0379205135954948      10.299311150930018
   136   4     0.22842172751693987      8.3826682153225587      12.226967254640126
   137   2      2.1104157091500637       10.22605937040754      14.177655025202792
   138   3      1.7790583191431921      10.193799515882613      12.226016120218405
   139   3    -0.11672068099114656      9.9311206106434575      14.258531559052489
   140   3      2.0970725304960367      8.1304248753906485      13.993561011895896
   141   4   0.0024714618619347656      8.4366024133058843      16.261631618392258
   142   1      2.0210383600143329      10.175203264329689      18.211084632746779
   143   3      1.9742870613730692      9.8806409309952556      16.129314078770598
   144   3   -0.063544766499133085      9.9322876845143746      18.205431191374061
   145   3      2.2464348574180111      8.0449098481675918       18.25204566240453
   146   4    -0.28297662274845997      8.3237583989376365      20.101200942474346
   147   2      1.9603229035361096      10.089352463625548       22.21373485219441
   148   3       2.085342369393405      10.014883130155065      20.338092803627031
   149   3    0.093328077748636148       10.03593110800405      22.407142128128825
   150   3      2.1641510107181983      8.1647734944912518      22.434349792179439
   151   4    -0.18905821420640975      8.0883023919484263      24.133817445125512
   152   2      1.9626601190789574      10.140174437557858      26.277729304637123
   153   3      2.0768248070850435      10.155847934507559      24.397339760970997
   154   3    0.068549148855777231      9.9972157217436575      26.449732277897208
   155   3      2.1760921119851946      8.1189111088654062      26.331006864085985
   156   4    -0.16847901500011245      7.9418126858691309      28.294327534792881
   157   2      1.8957282424195769      10.126528468564638      30.302049102822984
   158   3      2.1413560820397461       9.949212040588737      28.411399038992577
   159   3    0.044344992756715315        10.2192109457917      30.375749929454113
   160   3      2.0837855663575993      8.2266908266965881       30.67870285049278
   161   4   -0.083076958433504489      7.8337368595546142      32.367674496958053
   162   2      1.9230705240252506        10.1336897506594      34.396839023178167
   163   3      2.0348204223937651      10.363956851584785      32.457600686385497
   164   3     0.02970728518354292      10.207522702574964      34.489583324227162
   165   3      2.1344491045529583      8.2438461345411902      34.340474373877036
   166   4    -0.28286144062500007      7.8900616906749947      36.380215838965512
   167   2      1.9778416171119502      10.028646371650449      38.445190213280085
   168   3      2.2209906542970734      10.178290709644401      36.367334038767765
   169   3    0.091495970387078102      10.151401320686526      38.229595209059148
   170   3      2.1780874261694305      8.1531666115244263      38.448818032689992
   171   4  -0.0050441980769850908      8.0415344327830862      40.716073399762436
   172   1      2.0589384804715287      10.117971564148956      42.510631907838885
   173   3      2.0108158189476142      10.264464394502022      40.345507138547013
   174   3   -0.028454952062258829      10.140751656585492       42.40936502587698
   175   3      2.0992192545132764      8.0556063574241907      42.269964072653735
   176   4    0.021425515655269893      8.1944949708629213      44.897752308301975
   177   2      2.0957514968905602      10.175906538336257      46.698157056101884
   178   3      2.0640676106132232       10.35348450127886       44.54698071550019
   179   3     0.06917986154888367      10.123776680845541      46.447782671331538
   180   3      2.0587293616308546      8.1539689855598301      46.324602773282429
   181   4    -0.20340438997688401      11.934754512372681    0.025820944957433502
   182   2      1.8394186152111616      14.207228996811613      2.0364126233234656
   183   3      2.1134628562716893      14.296490414707057    0.098750679536850058
   184   3   -0.036760553789702895      14.243300060047019      2.1438681377776114
   185   3      2.2013872146277818      12.238575963478425      1.9908997006645248
   186   4    -0.20225649777533661      11.879820802769961      3.9885960837814798
   187   1      2.0219343282254028       14.15825737035755      6.0612932214443456
   188   3      2.2220468333501859      14.108386886181888      4.0045564301288996
   189   3    -0.04265780504754059      14.143104210651032      5.9272199454403447
   190   3      2.0293507834576596      12.093339738438193      6.3751009869394846
   191   4     0.25187350323968438      12.343740500023721      8.1873535273919753
   192   2      2.1846747248954257      14.171747052341024      10.083092387412258
   193   3      1.8058989462307355       14.23670243726758      8.1418956208749922
   194   3    0.060396466075913209      14.271440556317941      10.318020538985328
   195   3      1.8355451052618181      12.179573853659935      9.9703367895582442
   196   4      0.2130709292829322      12.417304239065922       11.97296014617354
   197   1      2.0493843838984378      14.192762223938391      14.148604596756041
   198   3      2.1277036154843545      14.027669504809692      12.087016165380421
   199   3   -0.081388327959382098       14.14376396919849      14.065186654472878
   200   3       1.844753021135167      12.091220912447771       14.31393950258035
   201   4   -0.041259728891230939      12.457366538629575      16.058804739802149
   202   2      2.0132379642116538       14.19155894303854      18.095280517937507
   203   3      1.9144976440138752      14.101139925247288       16.23328305783755
   204   3    0.047546892093035545      14.227616231498612      18.422360058260686
   205   3      1.9260895220585006      12.224920457163353      18.406714724025107
   206   4   -0.076960202257432248      12.235072671733931      19.912787219164436
   207   2       2.087511967905991      14.056224573439305      22.247728914951011
   208   3      2.0428335392261809      14.250087296376215      20.365405196150714
   209   3    0.024988127072263666       14.22955598324153      22.364580120971631
   210   3      2.0195747253121508      12.127703411345312      22.278465683600508
   211   4    -0.17593657371313151      12.306158582786002      24.317211337799698
   212   2       1.973613094886487      14.296426055661096      26.326667347242992
   213   3      2.0078045269092337      13.981580921121973      24.328892632073376
   214   3    0.065712047693850584       14.08863011714244      26.347369425675407
   215   3      1.9988856496516343       12.05285742363035      26.539552741513528
   216   4    -0.20559931043922181      12.230920943289105      28.180501077642703
   217   1      2.0497986952578735      14.119831552538956       30.33962693632018
   218   3      2.1714329794655014      14.249234426700609       28.27804179175693
   219   3   -0.018566455282231258       14.13414671111806      30.416897110802743
   220   3      2.2805575199953005      12.057756228651895      30.326119087430421
   221   4    -0.25079409799606817      12.115023386649039      32.383940723842464
   222   2      1.8627495496969977      14.155729688473363      34.437387398639025
   223   3      2.2046939044517604      14.123260793015296      32.486791998656201
   224   3    0.029531064741284717      14.203099066827145      34.304801972948354
   225   3      2.0801136065076866      12.230829688111719      34.517379647394591
   226   4    -0.30386827495809959      12.040362280153248      36.527921592610241
   227   2      2.0252179401277686      14.143222118774647       38.47146703241026
   228   3      1.9983214819695201      14.408725132468103       36.39416100518487
   229   3    0.085154828655805079      14.418527118942542      38.477407345820176
   230   3      1.9621000435086096      12.255981253110283      38.295144406476723
   231   4    0.028710799302104694      12.079916895413266      40.732392037664511
   232   2      1.9843170682753695      14.166293029309205      42.621681420660337
   233   3       2.149001169852399      14.257145090451207        40.3574246518682
   234   3    0.087122421672526512      14.195350400833803      42.292989573357822
   235   3      2.0929737658841234      12.246040956209832      42.280354639855531
   236   4     0.22536122388476701      11.888999856427425      44.742436779131509
   237   1      2.0687470532360384      14.150194438252873       46.62855059041717
   238   3      2.0257514518311099      14.087005333957102      44.482102188456764
   239   3   -0.027680744292141544      14.417154633705291      46.574958636679895
   240   3      1.9540691305826994      12.102473648960911        46.6292719667846
   241   4    0.090548837196907886      16.334875456366742    -0.14939675283862461
   242   1        2.09126434361802      18.231504884040195      2.0287980102348233
   243   3      2.0991500102812939      17.953028141863893   -0.057654220588521682
   244   3    0.014093460104915629      18.174146667353874      2.1483294539786377
   245   3      2.1673306847113198      16.140307989720487      2.1660990703435123
   246   4   -0.038023275317482334      16.223107581245266      4.3477873846576234
   247   2      2.2104990709096461      18.125240916069234      6.0267348195195076
   248   3      2.1313338122775236      18.381976296988938       4.126671497575841
   249   3    0.074077204722187415       18.41045347488944      5.9762573910013206
   250   3      1.8822960477738777       16.23123034739055      5.9978556167091019
   251   4     0.37025513035806279      16.209646089072116      8.1654975384897224
   252   1      2.1436248145979464      18.224285973583033      10.130581024158852
   253   3      1.8813834787571853      18.161322336813516      8.0591958523721363
   254   3  -0.0037926306591198394      18.113568913087047      10.191743276724896
   255   3      2.0524890863703757      16.137411257591026      10.150912259247949
   256   4     0.34536357766539744       16.12864457853976      11.978470441566595
   257   2      2.1724505611378664      18.159111354369681      14.122854237437775
   258   3      1.9379498510946045      18.224650307334663      12.198632397595929
   259   3    0.010243279267268816      18.281221777580697      14.210037187548032
   260   3      1.9245732242241456      16.243497720346646      14.199581988897014
   261   4     0.10941476787035403      16.486297592258662      15.876838518092182
   262   1      2.0533950178167961      18.223618232376818      18.213819925862229
   263   3       1.899634672330194      18.256834811442573      16.148770375740789
   264   3   -0.082243180414186629      18.188593769184145      18.377966589545967
   265   3       2.055049707093656      16.126756989093074      18.350624605340563
   266   4     0.11153771906460823      16.166292688611335      19.927603884283858
   267   2      2.0485965700596882      18.033256779885793      22.289351536456365
   268   3      1.9660742678060996      18.181669096914909      20.344033956594124
   269   3    0.063028169456300825      18.209136222160861      22.386057394448486
   270   3      2.0735035004130373      16.139380534629513      22.466433732808948
   271   4    -0.17662070427246471       16.15653070310173      24.177751450682035
   272   1      2.0131159158870617      18.229089504910924      26.291896379535949
   273   3      2.0991778854797287      18.466062800339717      24.242104470402307
   274   3   -0.043271503982234762      18.127185325566405      26.293206011509113
   275   3      2.1792516257095489       16.14724440813961      26.195610985545272
   276   4     0.26613107160053734      16.451320650287759      28.640730801790458
   277   1      2.1148566301688345       18.21618230655444      30.384003273015107
   278   3      2.0268591452599782      17.999526030535325      28.333774779370327
   279   3    -0.03312310624949967      18.146501316047026      30.301147424182769
   280   3      2.0275630104281022      16.175821617520452      30.532349223856702
   281   4     0.27340580426417832      16.403064701210543      32.147207568863372
   282   2      2.1379299374801688      18.219164945877452      34.456037520432069
   283   3      1.9257993101813586      18.314989912623279      32.440737944917856
   284   3   -0.031196823670238443      18.187260812156378      34.330408538215082
   285   3      2.0316900588284632      16.248754225235395      34.237808198048981
   286   4    -0.15610665837602694      16.137218876161928      36.706062843752385
   287   2      2.0488263622078504      18.221067139154076       38.56232377254603
   288   3      1.9283251002172439      18.180639690247922       36.36427045302451
   289   3    0.072915350489265077      18.182971665965983      38.355198412006288
   290   3      2.1617597823301731      16.252451459584268      38.389948777234856
   291   4  -0.0077013914500653289      16.043908682289786      40.660756604864567
   292   1       2.048696374279845      18.198409317737323      42.565816983148189
   293   3      2.1033286006171932      18.214288156489907       40.42770416916153
   294   3   -0.021342084064924181      18.073978441793138      42.412194827407554
   295   3      2.0927263572222978       16.10561776942626      42.413783549303751
   296   4     0.27981180071767553      16.394601306926045      44.792447832443514
   297   2      2.1335020758761614      18.270483703701942      46.615575104992161
   298   3      1.8957220789182061      18.257469966207253       44.63361922377397
   299   3    0.092593337557901029      17.965738716004903      46.680890938023019
   300   3      2.1588005985441501       16.21832264401089      46.384978954453679
   301   4   0.0082562833993819352      20.331964492047913    -0.20185034365567939
   302   2      2.1070010043051939      22.149231716228627      2.1029396224633619
   303   3      1.9768755541769663      22.300657401846596   -0.013612177069418044
   304   3   0.0059607895914708985      22.277505364724085      2.1078870873310294
   305   3      1.9837705307285034      20.281455814856812      1.8953069021320608
   306   4     0.30964005485087254      20.058594466066506      4.1927626389137007
   307   1      2.0539999911970024      22.302076942391242      6.0936583118774319
   308   3      2.1367889881673259      22.158888492178807      3.9933698083978513
   309   3   -0.017557389599082887      22.130105246057347      6.0537120343278774
   310   3      2.1563742112444424      20.208708610436126      6.2544725705491748
   311   4     0.33077904620027471      20.014695240565004      7.8739190571100348
   312   2      2.0023085756390535      22.139816950803972      10.155643200897138
   313   3      2.0931859704936082       22.38308935152757      8.1767166634859851
   314   3    0.056165491211099573      22.555906429599634      10.110765523021042
   315   3      1.8933398370803247      20.270535962787271      10.153262504941788
   316   4      0.3043778829944277       20.02219469056751      12.299047565518231
   317   1      2.0538634793966462      22.275567562344765      14.222988843400731
   318   3       2.002540481405338      22.440994172655184      12.118264602292015
   319   3   -0.046838023625614442      22.374770920756468      14.227612251838604
   320   3      1.9035048986296244      20.198535706389457      14.115684353763758
   321   4     0.28028861807982064      20.100639179716431      15.951862645138469
   322   2      2.1143688295542158      22.192608654514181      18.198694209644891
   323   3      1.8911783840496239      22.097031578871793      16.300972052774082
   324   3   -0.064909097312668057      22.405301465190444      18.334270700039575
   325   3       1.879174865546037      20.313059908777305       18.51323119894192
   326   4     0.21291867509022652      19.965043309654678      20.276706256701772
   327   1      2.0250957545131483      22.272870864183826      22.250365905563566
   328   3      2.0019717576104092      22.599968055526858      20.192252453089989
   329   3   -0.065100141897072875      22.476635193873733      22.369766594810372
   330   3      1.9229203490412792       20.22789384213393      22.111222172107794
   331   4     0.16873512592107265      20.077334608291807      23.998229945890699
   332   2      2.0770227016348595      22.156602960244363      26.332633709427185
   333   3       2.030281338898936      22.232315916237027      24.354149145096176
   334   3    -0.02717009149108179      22.433321347874404      26.245615711361403
   335   3      1.9381716151314095      20.294502821867603      26.549097943002682
   336   4     0.13002859866035618      19.998202139900847      28.658202460317142
   337   1      2.0285243466246099      22.244783750668393      30.371143379614725
   338   3      1.9633652088922198      22.548496879506779      28.270383704278832
   339   3   -0.097151650284799246      22.251556336377757      30.171637778109933
   340   3       1.940973206267909      20.221622931607957      30.125179910985803
   341   4      0.3642657637660926      20.110666843475503       32.19751430627359
   342   2      2.0949981015770613      22.259447262176678      34.302901049724156
   343   3      1.9047685500849256      22.045004922149662      32.418022105740143
   344   3   -0.060530163501622894      22.400132029041277      34.399104795317228
   345   3       1.857387917557872      20.217353294676535      34.457839928093634
   346   4   -0.074219819573147161      20.069662803754628      36.713508198804526
   347   2      2.0433662240678396      22.267504580341729      38.299226231220693
   348   3       2.009361166521892      22.326997592780625      36.400964335855654
   349   3  -0.0022319585564832163        22.2792834409709      38.341684426430668
   350   3      1.8945885387235275      20.257639635737782      38.388850519297911
   351   4   -0.038210866669312206      20.099856115228604      40.652965090927744
   352   2      2.0181216948866982      22.218162379207307      42.327167127371929
   353   3      1.9141753518808935      22.239017575483878      40.457233273539252
   354   3     0.11272009427172754      22.311262471017237      42.758294010582553
   355   3      1.8616325415419943      20.269674068753254      42.528878827861824
   356   4     0.21941377439147947      20.356596095101388      44.402155534260551
   357   2      2.0787927577753247      22.357153645482331      46.622344170330976
   358   3          2.071000675599      22.031968195377573      44.671034418402876
   359   3    0.055141259145158231      22.201354353088345      46.651335642073875