(written by ASE)

8640 atoms
4 atom types

0.0      48.599999999999994  xlo xhi
0.0      48.599999999999994  ylo yhi
0.0      48.599999999999994  zlo zhi

Atoms # atomic

     1   4     0.19569459939692016    -0.14830345900240888     0.23488199450324679
     2   1      2.0249333023530331      2.0155783478145297      2.0923491821904334
     3   3      2.1449698093635519      1.9822531163446802     -0.1343111333705663
     4   3   -0.010137653777913534      1.9061592490500161      1.7919666677316404
     5   3      2.2011256382074635   -0.062417776452975041      2.0114146924980427
     6   4     0.02481232822948248    -0.19624429318532161      4.3307224213127569
     7   2      1.9138097165441241      1.9920007686649515      6.1243243447948492
     8   3      2.1406952034317279      2.1535216820296426      4.1476852812276794
     9   3    0.052311942880678891      2.0994984967598267      6.0640936233012388
    10   3      2.0290634177191271    0.037215864687505457       5.880973295428527
    11   4   -0.017763604915089586    -0.38078294155998393      8.1172695440778995
    12   2      1.9538498725886939      2.0337256552586989       10.17471459075267
    13   3       2.185233120257287      1.8619193363941382       8.078893407082715
    14   3    0.051517556353090424      1.8024698219028616       10.07810804088021
    15   3      2.3540766033098417     0.08617020390233894      10.225362786623055
    16   4     0.10082396086022545    -0.28544467591961231      12.216773264615918
    17   2       2.060868817026702      2.0432311120544315      14.348903164772574
    18   3      2.0400667880569037      2.1342237423608243      12.068756958440959
    19   3   -0.059807841317411466      2.0190606979419914      14.165190228433143
    20   3      1.9968996219347275    0.096472166099056914      13.992534031180822
    21   4    0.042232632705686765    -0.34787767880825493      16.222974979736581
    22   1      1.9785974459482296      2.0596390302001728      18.278205258863533
    23   3      2.0443341965590234       1.989150041887658      16.210612908721028
    24   3   -0.080085460469674921       1.930403205168802      18.451793076048659
    25   3      2.2583768416880918   0.0027043888393293372      18.314530639022998
    26   4    -0.11437433482937927    0.003203778005166657      19.992956182375579
    27   2      1.8710328157681488       2.056902011173857      22.258367559707377
    28   3      2.2222645673222252      2.0147295267122649      20.365998575151735
    29   3    0.017522521413153927      2.2367877468403479      22.242326547020152
    30   3      2.0591851826133198     0.14766274736476914       22.49855040876011
    31   4   -0.078839023072880043    -0.33047323391358285      24.365065540789512
    32   2      1.9144728658473487      2.0088553347260136      26.254297083203436
    33   3       1.979783794278313      2.2395219689554802      24.366514425111887
    34   3    0.024388657708599666       2.082477598396228      26.431676900649396
    35   3      2.0866660977479516     0.13322562765253571      26.246621580675235
    36   4    -0.14570066080162949    -0.36279062022086833      28.268787547900224
    37   2      1.9320691736582476      2.0052922150958561      30.236238666077352
    38   3      2.1250902875085718       2.026736630354649      28.331423494652938
    39   3    0.056220138435654064      2.1874699269547393      30.393833674532051
    40   3      2.0152868168761007    0.098095430737583922       30.47917048741358
    41   4     -0.3573138144898399    -0.04472082230905558      32.478413072071298
    42   2      1.9597263670071445      1.9267240088379478      34.404066458196866
    43   3      2.0433744053294762      2.1640568250814773      32.481376243046171
    44   3    0.079821481514641801      1.9141099881763117      34.440297802048235
    45   3      2.2610796903437258    0.059154848786733834      34.417018492360903
    46   4    -0.35238824249226625    -0.19302910763928466      36.335736581522148
    47   2      1.9519500085397676      1.9210512000462368      38.397489494758617
    48   3       2.076035612741927      2.0768671736749345      36.441368500750414
    49   3    0.073686375646821262      2.1425249109690716      38.522391049035171
    50   3      2.0674104037069441     0.06927789157483058      38.506683997598692
    51   4   -0.089965682210240483    -0.25547930729060614      40.540405497942665
    52   2       2.051488072664176      2.0336740788859715      42.486082928168528
    53   3      2.0966934501476144      2.1821458577979223      40.472549843407855
    54   3    0.031630955070730112       2.176541032320515      42.412549057555623
    55   3      2.0387772268705282       0.164053432928918      42.545161915777037
    56   4    0.036401948468300527    -0.37411148046004938       44.53471304985117
    57   2      2.0397316331772473       1.892697718446311      46.536132402578232
    58   3      1.9558380351928539      2.2958732250388554      44.470717421636785
    59   3     0.10496111521772508      2.2175603894995559      46.546607961824428
    60   3      2.0445574590943711    0.056682257033449771      46.352548721067677
    61   4   -0.046131020387616718      3.6426434790046618    0.079044650263525557
    62   2       2.071898867718061       5.972441222439187      2.1103323290065545
    63   3      2.0086777665967754      6.3634927613745544     -0.1067521063533418
    64   3    0.052095391736907366      6.2416610202357896      1.9523490509117407
    65   3      2.0113013219992144      4.1101477869655634      1.7348794804764422
    66   4    -0.17400032756445005      3.9602897982911784      4.3669209896989472
    67   1       2.013142958107645      6.0538473033734661      6.1199821832785304
    68   3      2.1365235044315001      5.9189626172596483      3.9901602508177674
    69   3   -0.044552342108455184      6.0214347738973863      5.9340094020838494
    70   3      2.2250667031409566       3.958227208124141      6.1733437065474703
    71   4     -0.1645800189833771      4.2599585056377656      8.2908752483930908
    72   2      1.9381189308244169      6.1917754419192477      10.148844279934776
    73   3      2.1639538433774135      6.1158886214628021      8.1811932306442579
    74   3    0.045044169079100027      6.1462892061124741      10.058914657801788
    75   3      1.8779280383390899      3.9796531143513421      9.8907151525873864
    76   4  1.1249519359977347e-05       4.284133635971358      12.259008297282969
    77   1      1.9847978813179716      6.0756687723480001      14.197709349716776
    78   3      1.9989015123780771      5.7944372974026281       12.05282342102419
    79   3    -0.10077052663015003      5.9782186969752908      14.140697945215724
    80   3      1.9606732551036576      3.9851693441136287      14.165835342993159
    81   4    -0.24960108919578899      4.3269058472997708      16.176635778850816
    82   2      1.8439065602785025      6.0956365271820871      18.284530392540663
    83   3      2.1095392661431394      6.1114189009081992      16.289401670022603
    84   3  -0.0075683526024527582      6.1830243753189569      18.293330132514782
    85   3      2.0204255007296319      4.1371126680298209      18.254879463385148
    86   4    -0.33627860408934085      3.9375924247349889      20.109284459308441
    87   1      2.0033759802820037      6.0783083293175686      22.255922091304299
    88   3      2.2492707409773289      6.1146867511696064      20.198217746312572
    89   3   -0.043074432746416765      6.1062648948191445      22.307782878096617
    90   3      2.3164972871042093      3.9964811333346155      22.279585821963064
    91   4    -0.38500618883593224      3.9647760082636152       24.25893889438289
    92   2      1.9381526864765382      6.0666640344786433      26.316013492775546
    93   3       2.111372442141302      6.0473518258979713      24.396977666376294
    94   3     0.03656354152296247       6.246909586478985      26.441250362635827
    95   3      1.9808710588895162      4.0909008102120312      26.517562549169135
    96   4    -0.37329522458760822      4.0128584516177881      28.193552784722801
    97   1      1.9484765371983244      6.1072824368650744       30.39103686098289
    98   3      2.1046286648567172      6.2144843526078937      28.347447094856992
    99   3    -0.10898301385393652      6.2714499360057658      30.419934475020739
   100   3      2.2328964620561753      4.0255345153926276      30.351352216056767
   101   4    -0.31227323043854327      3.8369121889334656      32.330601302047519
   102   2      2.0061549824318843      5.9309773483876196      34.409655355639678
   103   3      2.1188688642719504      6.1193427645498586      32.504373445968469
   104   3    0.088037301757578096      6.3215089454141031      34.400002584450064
   105   3      1.9366357006921937      4.0668150716854443      34.550810776783294
   106   4    -0.39253578281847357      3.9577104438476356       36.35027595072475
   107   2      1.9286695938538849      5.9997673824674953      38.460106555999239
   108   3      1.9564596936062117      6.3284871944417693      36.463352108692106
   109   3    0.038061879362559489      6.2709178408511974      38.539449792643524
   110   3      1.9871997516987479      4.1420020296874176      38.358602994197867
   111   4    -0.17678474849680464      3.8444121215195808      40.523817409117271
   112   2      1.9635442932013041      6.0796434263136421      42.589158444231771
   113   3      2.1887315501981939      6.1799933437603265       40.36630364644779
   114   3    0.091089393102802285      6.1927020580934995      42.309142690431734
   115   3      2.0766352258926108      4.1742852724048101      42.364290998052766
   116   4    -0.10035888333247785      3.8765496752732509       44.74048235292306
   117   2       2.060378971418523      6.0393678530371311      46.611067956807943
   118   3      2.0503408385982098      6.1126887793662839      44.475693752077042
   119   3    0.087506061005242719      6.2276850269957444      46.414254552298651
   120   3      2.0550311985408349      4.1697921288438247      46.614727698282827
   121   4     0.12579858631782057      8.0403295320694106      0.2418918684076142
   122   1      1.9977931233844433      10.144134911203206      2.0505058956406885
   123   3      1.9687238664612283      9.9680051025251384   -0.033389620932918952
   124   3   -0.068563571364276057      10.268859260329185      2.0462522603992741
   125   3      2.1452194282483417      8.0526819770163751      2.0995383784619115
   126   4   -0.055084149889143424      7.9400696727405835      4.4323601902545109
   127   2      1.9983411801196147      10.190727982992042      6.0594737640068104
   128   3      2.2661845238371208      10.292078094371231      4.1149820335108815
   129   3    0.047635887530353999      10.099998007316973      5.9030899060276223
   130   3      2.0619956156147099      8.1231739452461191      5.8542953671685254
   131   4   0.0058349437899975288      8.3105805353634157      8.1001282355178699
   132   1      2.0275766067694199      10.138852373320217      10.156046811684929
   133   3      1.8502268412721601      9.8254934739576054      8.0509675915162564
   134   3    -0.10406634676111094      9.7995189420714244      10.118101722261951
   135   3      2.1617409672660206      8.0391053770407996      10.299220461409313
   136   4     0.22669047081214119      8.3836764361663416       12.22248340350991
   137   2       2.109798616560135      10.226343705429748      14.177323235005968
   138   3      1.7787131746836198      10.192844263349523      12.225465741736812
   139   3    -0.11685058899626009      9.9345362401224264      14.260795089596433
   140   3      2.0956218144617758      8.1304710632535393      13.995289601125375
   141   4   0.0020824676305670081      8.4333857019351441      16.261422433249898
   142   1      2.0215593498284896      10.175152270676175      18.210135888979792
   143   3      1.9746159877788356      9.8804666573864726      16.130140105816515
   144   3   -0.063902322692340335      9.9306511231815673      18.202675867650225
   145   3      2.2480762312642049      8.0434643458684931      18.249980790707333
   146   4    -0.28526970250822298      8.3260505824394819       20.09962658334269
   147   2      1.9601293752719471      10.086473125903185       22.21336300042379
   148   3      2.0808262983462815      10.008203995922637      20.337684746698375
   149   3    0.093148188632154572      10.036732107195649      22.411909001606201
   150   3      2.1604658172195381      8.1635580529503322      22.439792830968187
   151   4    -0.18919754859818375      8.0896458412283909      24.135218832688697
   152   2      1.9638782981500642      10.141511358747161      26.277448176282082
   153   3      2.0867521739755035      10.163274942328052      24.397262890370452
   154   3    0.068799048116817862      9.9945928395754233      26.442110454974205
   155   3      2.1764972021355899      8.1166705010683557      26.326579479598987
   156   4    -0.16860957453157532      7.9411240224215174      28.293582700862753
   157   2      1.8948622240697364      10.125823057775147      30.301132904143422
   158   3      2.1334801548849001      9.9430666608266698      28.410805686993445
   159   3    0.044764433560754192      10.222554035848546      30.382819254379697
   160   3      2.0815647329685705      8.2275152672827563      30.684262006269794
   161   4   -0.080219033374180182      7.8337896164960403      32.366344937290471
   162   2      1.9206934458799259      10.137977881832596      34.397954448415241
   163   3      2.0325248411106522      10.362559773368071      32.458872521360561
   164   3    0.027466062779875438      10.208366199884731      34.486112888746057
   165   3      2.1356595388938779      8.2457330912084608      34.338567138041569
   166   4    -0.28573824405384096      7.8894586203745405      36.380685875795358
   167   2      1.9800149784109204      10.030331416301069      38.446769758090902
   168   3      2.2231632391334495      10.174258071922823      36.367885159414158
   169   3    0.093533121888027468      10.155141680272518      38.233058106925156
   170   3      2.1789738110381851      8.1546746252195952      38.451241033813211
   171   4  -0.0076071210033511237      8.0400912112378204      40.718414994628155
   172   1      2.0584097975698139      10.118449141353786      42.508012187423702
   173   3       2.015791225880653      10.267837310191489      40.347210456294661
   174   3   -0.029681195928430826      10.143627486824935      42.408717544811012
   175   3      2.0990729092872877      8.0559517143578461      42.269816456008421
   176   4    0.016147324922119784      8.1920143247266441      44.899320543255421
   177   2      2.0984701935308836      10.172967420228506      46.697381491633578
   178   3      2.0660398560621092      10.354028909886502       44.54424198903132
   179   3    0.068622990845824211      10.128168961132411      46.446886169339329
   180   3      2.0582646196573933      8.1570380291456868       46.32619092196164
   181   4    -0.18616627416782261      11.919964464826057    0.019509125142501384
   182   2      1.8402204045937001      14.209773864568964      2.0360003364388817
   183   3      2.1017992014948108      14.300826756545632    0.097211049507557351
   184   3   -0.037719512965000666      14.243225019183528      2.1519452364982445
   185   3      2.2058736097750407      12.241148462542418      1.9916522935027223
   186   4    -0.18832787677898261      11.873458916993158      3.9948628225418377
   187   1      2.0224702721249903      14.160096243752267      6.0625412903121596
   188   3      2.2284197878193726      14.106955220735866      4.0044195822703852
   189   3   -0.043473054138890473      14.137806876733228      5.9245086296342553
   190   3      2.0335297749234091      12.093354944538239      6.3753847548565998
   191   4     0.25597021784236584       12.33792069566649      8.1803886567617798
   192   2      2.1825826958228882      14.172682987335824      10.081613016942049
   193   3      1.8015316689775136      14.239069357562702      8.1414860374850715
   194   3    0.060860694845641758      14.273122966252979      10.321825091823269
   195   3      1.8338525117384057      12.179148670698849      9.9680898962664575
   196   4     0.21165451205820457      12.418064626046771      11.969960086779748
   197   1      2.0472269344665865      14.193320921071424      14.147923439701545
   198   3      2.1302229584315264      14.025779268533388      12.086401536296874
   199   3   -0.081540657106786416      14.142088890220769       14.06599555151614
   200   3      1.8437739407429057      12.091302527478176      14.311933344710255
   201   4   -0.043212022850363248      12.459285154159844      16.059861338982625
   202   2      2.0136438211230203      14.192474512478212      18.095916214990677
   203   3      1.9132371637911842       14.10187855121635      16.233396986294622
   204   3    0.047086683435764359       14.22915869412633      18.423022103789371
   205   3      1.9240446855237674      12.224674974334519      18.407466881501922
   206   4    -0.08189968639479446      12.233860239052879      19.911768702442494
   207   2      2.0844802331052295      14.053805500022889       22.24386552153992
   208   3      2.0494815502905048      14.254337031319825      20.364591571793969
   209   3    0.028073495634293549      14.230793013483888      22.358884510200888
   210   3      2.0227609331932439      12.126689108944948      22.267735433865855
   211   4    -0.17887831804368892      12.306876917057471      24.319466682686162
   212   2      1.9770320199126419       14.30103105316959      26.317415746441629
   213   3      2.0073198663489769      13.969409564380403      24.326862888690147
   214   3     0.06912126130129051      14.079002170853856      26.352755829558021
   215   3      2.0010860932784245      12.050743752875871      26.546484198142096
   216   4    -0.20343456692876372      12.235797990266986      28.175689886462557
   217   1      2.0457067975313423       14.10667705598051      30.343565114083738
   218   3      2.1726070260402226      14.264968738750097      28.279203092333688
   219   3   -0.021342029099567304      14.128345530631897      30.413199140824272
   220   3      2.2869659230341028      12.054650879646195      30.322198401581709
   221   4    -0.25044874164754533      12.117931224644142      32.384934528941805
   222   2      1.8610000153593795      14.162183781282984      34.439921164240708
   223   3      2.2035123815819202      14.112054151376677      32.483141254488899
   224   3    0.028132686271049093      14.199237193739373      34.305754839914492
   225   3      2.0802036696298902      12.229303499748845      34.523574832916843
   226   4    -0.30541499242371306      12.046618495862939      36.532653506191913
   227   2      2.0209106363322569      14.144614976916461      38.473144986305584
   228   3      2.0004536554111292       14.40973278507796      36.393965549089451
   229   3    0.083973730571601957      14.415508216844966      38.472924540738902
   230   3      1.9648036165967877      12.256271339455989      38.291805430130502
   231   4    0.025931564475476836      12.079767139962899      40.732137909696746
   232   2      1.9814264755819835      14.168470809065974      42.621566608807811
   233   3      2.1484469809795055      14.254063529413413      40.358539292504815
   234   3    0.084295981920927424      14.198316268393011      42.294722128479222
   235   3      2.0920684965856311      12.248867999590992      42.278421683145389
   236   4     0.22787040800624297      11.887017132616661      44.741327146239144
   237   1      2.0625672484817748      14.152291369921507      46.625706525477213
   238   3      2.0278178578695054       14.09348033610112      44.481719757755528
   239   3   -0.029638991560482511      14.422916623287083      46.576364831478195
   240   3      1.9529205420893088      12.103311148275106      46.624645410232404
   241   4      0.0875631904876151      16.328119691009373    -0.15169589695607208
   242   1      2.0927547600519638      18.233128215597599      2.0284547655376119
   243   3      2.1008961193984446      17.964406416034656    -0.05879607377073854
   244   3    0.014383869193503091      18.175418108576892      2.1518224685142946
   245   3      2.1621955573484604       16.14312717856431      2.1690908242048241
   246   4   -0.038913342544196414      16.225521853269349      4.3460946948427832
   247   2      2.2126525913225121      18.127959467850314      6.0249569645376324
   248   3      2.1292151969103856      18.380207301323399      4.1262350174709841
   249   3    0.073188042552787352      18.410407159635454      5.9759107893227918
   250   3      1.8820805683248434      16.232152888888297      5.9952315398948635
   251   4     0.36909855689167514      16.212304393393811      8.1604245145086072
   252   1      2.1440852254802989      18.224683191733405       10.13098584353359
   253   3      1.8798157992021081      18.159544560995069       8.059112219452258
   254   3  -0.0045470608743692371      18.112101568997577      10.192978238479281
   255   3      2.0520024481692936      16.138576900020979      10.151288421187063
   256   4     0.34309866816224471       16.13132856112238      11.976342706042381
   257   2       2.172303773296612      18.159179574599197      14.123169333485517
   258   3      1.9362447444928612      18.224428031011385      12.198930941591717
   259   3   0.0078997909113289362      18.281035490544003       14.21117065544494
   260   3      1.9246138521346896      16.243812011615013      14.201379147576047
   261   4       0.111459256385848      16.487846901833386      15.877429551728165
   262   1      2.0535639019471317      18.227577619078378      18.215552822594248
   263   3       1.900730810934091      18.258931230341634      16.149038038794536
   264   3    -0.08062695770900255      18.191541427007408      18.369777323572226
   265   3      2.0609166296659671      16.128733014357326      18.352954980764764
   266   4     0.11249597470262901      16.168080840789461      19.928748909811524
   267   2      2.0530488401225062       18.03238901150959      22.286370364371827
   268   3      1.9521425041127449      18.162219180531903      20.345300365334964
   269   3    0.064408424232649128      18.197652675866848      22.404840423438209
   270   3      2.0833598328321274      16.137219613004135      22.480089564322853
   271   4    -0.17482476143684531      16.166866724472357      24.177672812194267
   272   1      2.0067207113841516      18.221721202577918      26.296786577879189
   273   3      2.1082926076098607      18.468715270505751      24.241676596019026
   274   3   -0.047245977402943277      18.126690327223521      26.270382222033618
   275   3      2.1654322044237806      16.146295986477721       26.17341998790868
   276   4     0.24009263372742715      16.455580680196931       28.64395935719854
   277   1      2.1091587064333592      18.213564369332573      30.399267493355758
   278   3      2.0088236429536388      17.993865657579853      28.338506721641505
   279   3   -0.035591429135910256      18.141289561312533      30.323029877779703
   280   3      2.0451552100722834      16.165556951202859      30.506053770324648
   281   4     0.26661803780495591      16.408501176121057       32.15376219371079
   282   2      2.1492018494979193      18.229981141187519      34.455231600767306
   283   3       1.947383223204425       18.30638318903793      32.440402057085507
   284   3   -0.027175363031179588      18.176021246566286      34.313436735179394
   285   3      2.0388592827094585      16.238683527534878      34.225158038790816
   286   4    -0.15840615079613521      16.144586661638442      36.706133478843846
   287   2      2.0480676872617516      18.222912099475863      38.559376362646233
   288   3      1.9161893981836904       18.16288758943902       36.35757625157693
   289   3    0.072141990613379545      18.182648379520565      38.359456406708837
   290   3      2.1611311963434421      16.249530052535153      38.392053419373916
   291   4      -0.013034438809783      16.054009742392005      40.667783084333223
   292   1      2.0514171862861321      18.194348607842741      42.566054493268034
   293   3      2.1114615263288949      18.214046390766452      40.424208979712006
   294   3   -0.021666022336478744      18.066446124858107      42.403697690694472
   295   3      2.0927934965294188      16.106486121865363      42.407284287331251
   296   4     0.27363225134603136      16.400093717226209      44.792827553091257
   297   2      2.1364433682486585      18.264955401994303      46.619618622238249
   298   3      1.8853235697814275      18.257035127191536      44.629554662142048
   299   3    0.090493939796824116      17.962165230383516      46.683870213892966
   300   3      2.1595661159239894      16.221048964127245      46.385436390542168
   301   4   0.0080693649982470517      20.326033285068334    -0.21004020034873422
   302   2      2.1066582411021835      22.147765134507996      2.1048296853441331
   303   3      1.9825851799935179      22.289653241324409   -0.018638481150383291
   304   3   0.0077257089373329374      22.278692069579858      2.1062685224368476
   305   3      1.9835647594520736      20.281264377599982      1.8983728843681706
   306   4     0.30753527311693407      20.056128120605983      4.1921197189532426
   307   1      2.0558910378232089      22.301636717354242      6.0954531710134141
   308   3      2.1362833737867453      22.163377657235781      3.9937177506050561
   309   3   -0.016049951290135974      22.130700259349435      6.0522364757952936
   310   3      2.1561646375019499      20.207890710740443      6.2548451347872032
   311   4     0.33123750320546363      20.011902145672682      7.8740095036557118
   312   2      2.0032716310424958      22.139597123511642      10.155454797540159
   313   3      2.0920950027150389        22.3813909556611      8.1779812220713435
   314   3    0.055967517451342631      22.558467137684929      10.113704039765123
   315   3      1.8902682152577406      20.270270887501582      10.154836292655666
   316   4     0.30440925646166633      20.022577599966716      12.297346097532792
   317   1      2.0519129715119346       22.27674340574729      14.226392971657363
   318   3      2.0031073844481808      22.440410525411618      12.120203393679329
   319   3   -0.046979505894676768      22.368772973582239      14.229045500499057
   320   3       1.902719796267321      20.198069539608404      14.115586820875217
   321   4      0.2753224185031492      20.101928024738978       15.94633804623381
   322   2       2.112939064160082      22.195524145461171      18.198688780723991
   323   3      1.8933123481290268      22.079546046130513      16.302672927636284
   324   3   -0.066110230035746134      22.396891815383949      18.342228759491526
   325   3      1.8881054889274957      20.314819670354478      18.525689678672983
   326   4     0.22051407391888359      19.978519149118014      20.283883197180828
   327   1      2.0312785868174403      22.267740195393237      22.258350592913132
   328   3      2.0101670548879591      22.601449558762805      20.197235767774917
   329   3   -0.062434460705365749      22.489209340465536      22.353822924879292
   330   3      1.9160929180566579      20.223736438448594      22.093798247217553
   331   4     0.18581796435652934      20.067671235590659      24.013962889397234
   332   2      2.0875400128751003      22.150227611806979      26.328704001312598
   333   3      2.0029380228520037      22.224747564382287      24.354140647928681
   334   3   -0.028102907690327191      22.441052786560999      26.273784095941199
   335   3      1.9238444276637285      20.292484851680886      26.542744600402148
   336   4     0.12892967864846244      20.006381267104221      28.660649087178861
   337   1       2.032667171449186      22.248133136789647      30.372264369105363
   338   3      1.9842302111522212      22.538252821475663      28.269073720101275
   339   3   -0.095915864490341105      22.245489223817607      30.157572508239461
   340   3      1.9419244960389865      20.218924827759515      30.140876794709488
   341   4     0.37373151296752938      20.113097854653159      32.193524383533969
   342   2      2.0947993819338353      22.279545557955167      34.309563475588114
   343   3      1.9255273037911995      22.033910398378552      32.421908510558801
   344   3   -0.052519727228283887      22.392804199137561      34.398062055849529
   345   3      1.8672516351995043      20.206406667019806      34.458849525186366
   346   4   -0.067881917384844531       20.06881471247975       36.71215225772653
   347   2      2.0387300567373816      22.272690856529291      38.302781389372278
   348   3      2.0038843631966929      22.318153187643752      36.400286100618118
   349   3  -0.0031450379321021327      22.267855875088429        38.3511047200926
   350   3      1.8999704241280742      20.250226842207955      38.382327402736394
   351   4    -0.01630770055478889      20.090692472347055      40.670439911446046
   352   2      2.0164612505205133      22.222721145113162      42.328681641980765
   353   3      1.9220848824655061      22.235343053750928      40.455715445177511
   354   3     0.11131334604775586        22.3231910688332      42.752277343907437
   355   3      1.8390523398550973      20.267339592038191      42.516975889757866
   356   4     0.23429733791106716      20.345551022057077       44.41473597556562
   357   2       2.079113899859558      22.355147160608475      46.621205127078312
   358   3      2.0702067280570322      22.032254441473533      44.664459561215978
   359   3     0.05423655843123918      22.205935124767766      46.649396918689156