(written by ASE)

1080 atoms
4 atom types

0.0      24.299999999999997  xlo xhi
0.0      24.299999999999997  ylo yhi
0.0      24.299999999999997  zlo zhi

Atoms # atomic

     1   4    0.073236006242292775    0.063478915145581113    -0.32248980454327941
     2   1      2.0340333292774218       1.932838065426844      1.9899666504086975
     3   3      2.0545157913421366      2.2038888972022459  -0.0030662630064656532
     4   3   -0.071721789261821572      2.1903669642230033      2.0026609279529204
     5   3      1.8444453984464872   -0.072111826191343098      2.0394750259942573
     6   4     0.37598785346940705     0.14399549047286223      3.9812504783137257
     7   1      1.9663926800518987      1.9699358908756104      6.0879132270460721
     8   3      1.8290533552877497      2.0137647445634683      4.0674272823764808
     9   3   -0.076122116858148819      2.0395106161730032      6.3492909718484425
    10   3      1.7864196253287359    -0.06116969745366841      6.1673576069281602
    11   4    0.071509085231817135    -0.10358255567055823       7.841734951636159
    12   2      2.0695397628777576      1.9027498481203786      10.079892660122635
    13   3      2.0232707804833163      2.1407134553424925      8.1799678842096704
    14   3  -0.0035996713763086011      2.3005219652348137      10.128263187714696
    15   3      1.8396216346960788      0.0408006728075372      10.160483886357785
    16   4    0.010737729282587422      3.6689409522137586    0.020824025174308061
    17   1      1.9826195036588039      6.0663372354466532      2.0969788150610453
    18   3      2.1008702558795314      6.1090068319097526     0.04624043168342875
    19   3   -0.074283534258371531      6.2223901830778887      2.0738322098517723
    20   3      2.1006189673158131      4.0500165315972083      2.1841911736468158
    21   4     0.28477845129504215      3.7799206375617667      3.7159283334463065
    22   2      1.9191981026137326      5.9313677742814992      6.0787404269776237
    23   3      2.0397524083627747       6.282745254995139      4.1478136717786152
    24   3    0.028623817157737111      6.1214810072032648      6.0998677345520562
    25   3      2.0751653738712323      4.0606055765249121      6.0559869545186347
    26   4   -0.064623045889211486      3.7416532517635819       8.051612939618229
    27   2      1.9669255066041555      6.0241874055961935      10.160036425884712
    28   3      2.1192602451624776      6.1468074336202747      8.0797995518194448
    29   3    0.018178607368939653      5.9972957354325773      10.091958985669827
    30   3      2.1462622744315309      4.0780798263742835      10.220126918922862
    31   4    0.067520112984936889      7.6531285501905515   -0.010734161018844283
    32   2      1.9251397661463905       10.09331164467271      2.0315468230399518
    33   3      2.1907186672464776      10.330810658483173    0.070325543885304015
    34   3    0.043043706202151102      10.320313359908946      2.0400820816645502
    35   3      2.0653415640350743      8.2173508814478744      2.0114764483435486
    36   4    -0.12409645056520888      7.7558805991759385      4.0463199030482748
    37   2      2.0722464010937971      10.033205431272316      6.1246997245927961
    38   3      2.0290038980816463      10.277272163055844       4.025241870231179
    39   3    0.069295621094178084      10.425699967425388       6.056801324119454
    40   3      1.9425950492654234      8.1642398911574663      6.1367593582525384
    41   4    -0.28220943697049372      7.9574668316057764      8.1475940044387904
    42   1      2.0345723934809778      10.083747778447034      10.055476684394259
    43   3      2.0637259873167784      10.379388116866554       8.020238682893055
    44   3    0.008430231319157766      10.298256452749929      10.127327711602129
    45   3      1.9415372585398374      8.0667669399498294      10.139009137321569
    46   4      3.8966515393558101    -0.10026794311260021    -0.33188444122716049
    47   2      6.0110403642275632      1.8213746325602198      1.9382025810885726
    48   3      6.0133024920662468      2.2529619254724542    0.040753874484983341
    49   3      4.0930036426841161      2.0088391458014412      2.1639809535484735
    50   3      6.1042089906547838    -0.03813499462739639      1.8888382477168877
    51   4      4.2387827979256558     -0.3826713761883046      3.9513124000103317
    52   1      6.0547538310926603      2.0359385282688276      5.9958655463926043
    53   3      6.2774925946897877      1.9322757325364519      3.9738364258341785
    54   3        4.01048612232651      1.9775782279973764      6.1509608115970726
    55   3      6.1918771953692797  -0.0050368788449584451      6.2041606497132289
    56   4      4.1829517823102904     0.15218201134509612       7.604892015144161
    57   1      6.0317401351775226      1.9845782112047197      10.130613225240833
    58   3      6.0612266254248972      2.1342275727723323      8.1012556840234264
    59   3      3.9755678914290211       1.996228187158716      10.299104353559359
    60   3       6.321972772000124    -0.02925297475085115      10.021407806310593
    61   4      3.5228725999412074      4.0613388863067135     0.23391621373686614
    62   2      6.0073516841483601      5.9281176765359174      2.0047831949004622
    63   3      6.0441365122870039       6.034986202499816    0.047273762463774051
    64   3      4.0927372602665919       6.261445801269792      2.0987116651512516
    65   3      6.0418648975230447      4.0705708020352569      2.2304542507916283
    66   4      3.7658844952522266      3.5367784825247717      3.9933041259263464
    67   2      6.1321930116248433      6.0209487099197023      6.0379805098767401
    68   3       6.027667045215062      6.3219109533862703      4.0252010335861073
    69   3      4.0181290465671458      6.2950193150708733      6.0668337406674651
    70   3      5.9380819734007586      4.0963006040971388      6.0054655069948746
    71   4      4.1516326561362078      3.6566300293401945      7.8059375547232754
    72   1      6.0587147314148142      6.0745024950828252       10.08204006218177
    73   3      6.0815734063527023      6.0573093902774326      8.0429531887115626
    74   3      4.0334828509540142      6.2998985919309787      10.111011882497365
    75   3      6.0482665511807392      4.0437236209545082      10.324920706161546
    76   4      3.7330575531176944      7.7629927102274889    0.053442069712012173
    77   2      6.0743416928653033      10.024870210284773      2.1139501490455777
    78   3      6.0385928486992846      10.441787622126951   -0.013613316176013581
    79   3      4.1063613784772723      10.311827007555056      2.0651395912916888
    80   3      6.1045017607687875      8.1559346442442369      1.8877104263149207
    81   4      3.9649729108723442       7.778317212849454      4.0927442822017364
    82   1      6.0230230796363644      10.070199353929521      6.0717206156456305
    83   3      6.2112170656784809      10.203244979509945      3.9911297428358821
    84   3      3.9926257929651499      10.138168588732094      5.8884504445306263
    85   3       6.168814115185671      8.0640432418014854      6.2311572980319596
    86   4      4.0476955589516832      7.7205970896381251      8.0816361291235044
    87   2       5.979750602395475       10.11704385229387      10.057534037720712
    88   3      6.2213075072512476      10.203944014393485      8.1283503651395925
    89   3      4.0907759048037597      9.9444770334558452      10.179167343096626
    90   3      6.3856131033443546      8.1223974615257628      10.032376849729463
    91   4      8.0933479070061622    -0.17146715587327022    -0.25972324391290152
    92   1      10.107709817484475      1.9167400659722416      2.0649739741631428
    93   3      10.157269236769849      2.1618493058201635   -0.008101677515005264
    94   3      8.0448318965846219      2.2039430210254869      1.9570087320271656
    95   3      10.208440419063765   -0.082115706298384245      1.9022608059720825
    96   4      7.7143220466936606    -0.16468288385452884      4.3020689384194899
    97   2      10.029650923186395      2.0251586936265338      6.0426764981129644
    98   3      10.111186130473278      2.1169415736252994      4.0930919076323464
    99   3      8.1443239196751467      2.1616413677021833       6.155905759667748
   100   3      10.116684437950802    0.024429158888990266      6.0226880418187578
   101   4      7.6822205458954311    0.076120497606024518      8.0153537111816284
   102   2      10.054051020191364      1.9672257598182277      10.155702969786994
   103   3      10.337353399961982      2.0561473107436483      8.0878780256123477
   104   3      8.1716590475319091      2.2657157753528434      10.087528007774599
   105   3      10.070472386884774    0.058702051828658626      10.037314046156498
   106   4      8.2920337415361356      3.6900430865363862     0.17673252896486769
   107   1       10.07926828483642      6.0145737181724295      2.0282313932533427
   108   3      10.254981056804082       6.175586654775219   -0.045856041716871077
   109   3      8.0148769829141475      6.2036041559397193      2.0487552678787124
   110   3      10.285501452700098      4.0295987472892367      2.0082819422042348
   111   4      7.9975649202051731       3.645383341015866      3.8796272016928195
   112   1      10.095968280791622      5.9766630173672697      6.0931938998260318
   113   3      10.187785976722195      6.1442717331504282      4.0459644597314881
   114   3      8.0530423470945109      6.0269061023992903      5.9677230308548888
   115   3      10.422822258557883      3.9682268420033293      6.1003953148570265
   116   4      7.6495021144763493      3.8713875243278899      8.1906201523956277
   117   2      10.070353899505005       6.135734899705704      10.093619838057954
   118   3      10.358707767636778      6.0082179226006627      8.1219772394213088
   119   3      8.1661124403650973      5.8061273306058236      10.155645712634817
   120   3      10.442157294128444      4.0243497958463905      10.090304740798473
   121   4      8.2472168381725872      7.9660191438504357     0.40655864509041739
   122   1        10.0714953964393      10.143298530508021       2.049887285530184
   123   3      10.224350244019593      10.249022161651725   -0.071112244439291955
   124   3      8.0405538403674033      10.204770523293126      1.8156200476440998
   125   3       10.13155416485181      8.1230331116974952      1.9229733235410764
   126   4      8.3032680031188111       7.652083292013784      4.0591309963465125
   127   2      10.137493989501285      9.9701532408991405      6.1009164033735157
   128   3      10.061970123136266      10.296529580015687      4.0881977764233888
   129   3      8.1576155583596375      10.359969917400157      6.1168645399678097
   130   3      10.029726861333582      8.0877918104889446      6.0305606308030439
   131   4      7.7645992727246735      8.0327865488257046      7.9831766165105291
   132   1      10.163834115804976      10.064382401654644      10.091258406829541
   133   3      10.159509021699185      10.267426786271105      8.0520016385609789
   134   3      8.1265899493278031      10.348442361066899      10.112385834612986
   135   3      9.9136254010724461      8.0487688974211995      10.130156986906691
   136   4    0.058380701099541299    -0.29029442967141378      11.930528971601486
   137   2      2.1768518267456218      2.0653285699903146      14.153438825515504
   138   3      1.8202199498762985      2.0593153905270878      12.184965252892006
   139   3   -0.076833655520257144      2.2536151148696222      14.227041330302011
   140   3        1.87865518794473    0.053675512478322619      14.266703781861201
   141   4     0.34255142447285969    0.065806920774072311      16.205297956633121
   142   1      2.0520067071695713      2.0021709916032102      18.177138675694227
   143   3      1.8285237808339034      2.0550497910124395      16.142933215818278
   144   3   -0.067411231193934329       2.300941663356082      18.211814310756033
   145   3      1.7111562852252848   -0.021173132413608714      18.174139832039231
   146   4     0.33166822305877008   -0.054668350720450044      20.106135138555807
   147   2      2.0381959356557409       2.102749713013516      22.193216926505794
   148   3      1.8521754419852965      1.9037912351863444      20.283629926479819
   149   3      0.0461959096254657      2.0476908293815446      22.501307604613345
   150   3      1.9546240366333061    0.046876402810494211      22.508432566340574
   151   4  -0.0043104092431523666      3.7750646098276124      12.066574270172977
   152   1      2.0062911644504964      6.0389612246829492      14.089058268149683
   153   3      2.1112781521229227      6.1827927365418818      12.088117876491438
   154   3    -0.06019598064195178      6.1185341523422876      14.338792228174025
   155   3      2.0398900746886772      4.0050082888424043      14.251916294562269
   156   4     0.26334372622935837      3.8826865429608031      16.077006892005116
   157   2      1.9939945107881871      6.1255944527660828       18.13153342309484
   158   3      2.0116054330007276      6.0027346268528818      16.232241032585531
   159   3     0.01321622707907852      5.9623711883083148       18.39925360555058
   160   3      2.0661107865981645      4.0830198241945048      18.452152918643236
   161   4     0.22509646840158884       3.999521942855472      19.966702659386922
   162   1      2.0011870709813828      6.0398938864754328      22.287956381451163
   163   3      1.9873084185134282        6.27350754459236       20.27657764373533
   164   3   -0.058460345584730858      6.1836714828779993      22.329209014088924
   165   3      2.1305261565128597      4.0176130935399836       22.20645757994517
   166   4   -0.086013900784151581      8.2604574271869353      11.712949714150353
   167   2      2.0490739936260067      10.113114597591741       14.08175619144248
   168   3       2.010055703568574      10.061066775564685      12.193706954116829
   169   3    0.023946742745024487      10.212348850251404      14.360061430169704
   170   3      1.9820928799005428      8.1629936884096992      14.420345023639744
   171   4     0.11410442570129752      7.9299592302783273      15.914955509786713
   172   1      1.9738523603332863      10.095467777696529      18.259550747475238
   173   3      2.0478095958932157       10.37655469145639      16.231527750135108
   174   3   -0.062417925552468119      10.397301608880781      18.230663594383593
   175   3      1.9547555463521249      8.0684667118122491      18.219520477702357
   176   4   0.0003046954877695716      7.7385201116418108      20.135043083135066
   177   2      1.9400711730698152      10.076358647600999      22.216514073145451
   178   3      2.0428126763619114      10.123910732365918      20.350017741308594
   179   3    0.050002303564549599      10.277813732390689      22.465416366035797
   180   3      2.0599963875752727       8.206725628443726      22.464069547765924
   181   4      4.1473048716008742    -0.25854468519802937      12.038426157138009
   182   2      6.2482052259825069      2.0412376540076655      14.084698386232596
   183   3      6.1159337991689577      1.9156382148410342      12.193352499421575
   184   3       4.042705652304754      1.9607329920750556       14.17812619275486
   185   3      6.1089972089667137     0.10912165957012053      14.412463002653656
   186   4      4.3630729748751005    -0.31133158662353649      16.067276381618459
   187   2      5.9292203928130647      2.0253017105927129      18.121062658553225
   188   3      5.9727243246345694      2.2529316145893352      16.233838272408708
   189   3       4.069101929448431      2.0097536582218214      18.407001398772426
   190   3      6.2683106755845017     0.11827275071462201      18.180133060899287
   191   4      4.1162076288260181    -0.28275770223350288      20.253338853831895
   192   2      6.1072942972901147      2.0077203404593376      22.235311994986837
   193   3      6.1785354866385171      1.8942264926546655      20.346123276651486
   194   3      4.0654440956373534      1.8702874566804049      22.297568497275673
   195   3      6.1266635309506414    0.067436059035520829      22.590158922867772
   196   4      4.2210723495015978      4.0190562782226653      11.751930431223537
   197   2      6.0637253564516138      6.1617164146018428      14.077377602458894
   198   3      6.1218339369056656      6.1832341769550512      12.169767830911434
   199   3      4.0755657206657228       6.186504279308803      14.328435590106071
   200   3      5.8938683056820995      4.0593048305645363      14.063610411327067
   201   4      4.1887912504231792      4.3044642987691404      15.939157204777635
   202   1      6.0253176526009495      6.0832584378100627       18.16911363578954
   203   3      6.0605886402645623      5.7934316938940569       16.17390755484794
   204   3      3.9984883428134714      6.0865730822353363      18.413728968795159
   205   3      6.0029835148382995      4.0050979580216248      18.566098175264148
   206   4      3.9670401415327206      4.0995032918969141      19.909348734028008
   207   2      5.9569543884063183      5.9786300977541158      22.294062847946527
   208   3      6.1612383715190022       6.243793183575681      20.382512118666657
   209   3      4.0948600528326127      6.2547793525762749      22.281850152510405
   210   3      6.0300716928383817      4.0672098019252898      22.207731540170915
   211   4      3.8067966362558465      7.9808440899908213      11.829131598296362
   212   1      6.0485117561782555      10.095075910012802      14.106402612097137
   213   3       6.352302773425726      9.9939039239000174      12.095044657615922
   214   3      4.0085472909385969      10.046837298729136      14.351703135359513
   215   3      6.1267992276922723      8.0783192097681606      14.423047603156107
   216   4      3.9791747242814037      8.0783776145708064      15.867166232652439
   217   2      5.9615739813812372      10.090418808392883       18.15839462240649
   218   3       6.046160278010217      10.282395280620326       16.28906075758546
   219   3      4.0763580981950511      10.124826136221259      18.420869862652655
   220   3      6.2190926789826646      8.1707671503925123      18.262759733995928
   221   4       3.813147506812252      7.8283292486406335      20.127365782520691
   222   2      6.0399900712390311      9.9823834249984067      22.323512186171378
   223   3      6.2412004398332277      10.094062191856558      20.369816248693894
   224   3       4.107852720709686      10.242454858888587      22.301667787184702
   225   3      6.1693542551369553      8.1315822158644533      22.478893776729141
   226   4      7.8958508412056432    -0.24486753722771587      11.868512337577025
   227   1      10.073033200754681      2.0705317653714004      14.163829186501294
   228   3       10.29562741413268      2.0631210282843693      12.076436020220614
   229   3      8.0821906983629273      2.1505125253291233       14.26135968976733
   230   3      10.224638983995112   -0.040402543027630584      14.214458038353342
   231   4      7.8692725724542489    -0.32471499191408754      16.063140988568001
   232   2       9.970229236254216       2.014888022228301      18.178734658626581
   233   3      10.283063085126487      2.0046123236906488      16.294544644203363
   234   3      8.0892848884138431      2.2224620950520286      18.270340638779132
   235   3      10.040343593885444    0.042785656888425019      18.402856601012417
   236   4      7.9824114938218278    -0.30826939677840731      20.081712777045251
   237   2      10.242293724110898      1.9422685164172964      22.213316174135908
   238   3      10.062294041440799      2.0101947318857105      20.307303200476841
   239   3       8.066569399929179      2.0704740950444944       22.53362783386638
   240   3      10.063818267408699    0.030238995968707348      22.488661863000885
   241   4      7.8331595098041573      4.1137297755593174      11.860953015225769
   242   1      10.065918380984227      6.0985071712224013      14.097586107376261
   243   3      10.327507036665205      6.0296073402831665      12.082562957004395
   244   3      8.0417144168702244      6.0576056425314517      14.326373808366265
   245   3      10.358455784840716      4.0756194614966939       14.17867057463987
   246   4      8.1264410387593653      4.5102956880630884      16.159257436688282
   247   1      10.093931723176535      6.0768092842695829      18.220149558559868
   248   3      10.211422236922299      6.0087739357241379      16.212674170772605
   249   3      8.0816673250685493      5.9536324266874319      18.332407286167459
   250   3       10.27690347045484      3.9733450714612228      18.348284493642371
   251   4      7.9364098224637614       4.216211582444398      19.893660149598372
   252   2      9.9747249885583216      5.9518664234368535      22.312776651511626
   253   3      10.192211165639591      6.1266715164902248      20.356871526959416
   254   3      8.0975968004856131      6.1090967454661911       22.36613274419328
   255   3      10.149741341920208      4.0600036228934933      22.332417348695952
   256   4       7.960595329789304      8.2322262168259304      11.815814224958862
   257   2      10.087234314021183      10.120355360045698      14.056933498717088
   258   3      10.043234181601385      10.168239444303067      12.199068131604461
   259   3      8.1539260706553911      10.121825918567302       14.44359108566081
   260   3      10.105602061911215      8.1767571898306493      14.399564936192592
   261   4      8.0782873072857075       8.089821582499864       15.88917110263713
   262   2      10.036782314791292      10.141574161083012      18.230321664785762
   263   3      10.261025853087379      10.167558975596021      16.331046570745986
   264   3      8.1316052298240731      10.274595687409029      18.265484590087091
   265   3      10.145677106252405       8.194306551478352      18.361887334444226
   266   4      7.9373442824360438      7.8087172591510274      19.897268197248785
   267   2      10.088173456286308      9.9942146025531766      22.244603414870451
   268   3      10.101274329209817      10.257732665751423      20.292631933080759
   269   3      8.1211615630572194      10.311556245783905      22.408324600775526
   270   3      10.148257605385565       8.115919973865358      22.300247451538898
   271   4    -0.30122290928952544      12.135831621932374    -0.20632066024300139
   272   2      1.9254912356560236      14.161769230193913      1.9552664306914493
   273   3      2.1988293177289249      14.149546796741847    0.040541535192697098
   274   3     0.04713280704754106      14.218160772440733      2.0489943404946058
   275   3      2.1827147345278579      12.243218286104035      2.1314827182483422
   276   4    -0.18081938131580505      11.985379250636516      4.0766666969202374
   277   2      1.9380440009146123      14.175160729848477      6.0158641518456255
   278   3      2.0976274404909456      14.371241465924063      4.0622275994773602
   279   3    0.052689993406310802      14.174713644895911      6.2395509151306898
   280   3      2.2572097770608783      12.251990167762703      5.9715092863091694
   281   4   -0.035666010912784513      11.790849840647963      8.1998884303405504
   282   1      2.0073347305864542      14.186890237289596      10.064822013572229
   283   3      2.3007606201179085      14.124615986676787       8.038437341737092
   284   3   -0.018035780255003572      14.165101963021479       10.26460440857849
   285   3      2.2150311082721976      12.147953194454978      10.192809740008054
   286   4    -0.11047262224880741      16.278564310357936    -0.26963148433097262
   287   1      1.9844640106244384      18.226570101684906      1.9915879334497588
   288   3      2.2620082214538955       18.28444871198786   -0.024916841832522942
   289   3   -0.067773300011195498      18.211062349001661      2.1219329934850135
   290   3      2.1608566351364442      16.152616261793941      1.9583680164549211
   291   4     0.11148739522692631      16.520798986914276       3.824804116221983
   292   1      2.0111673126759455      18.219489393882338      6.0479168978887881
   293   3      1.9736936425864176       17.99865968577825      4.0570056997260888
   294   3   -0.034940918791313766      18.227297069137261      6.3425655946630846
   295   3      2.0152694793384818      16.166811469037143      6.3188980726326385
   296   4    0.011526958406113464      16.312275168980907      7.8009109838358297
   297   2       1.964830062966874      18.209890358387263      10.113994367848624
   298   3      2.2434158671364166      18.302745399295819      8.1761181182078833
   299   3    0.057677749216357245      18.375357215150544      10.145093986820999
   300   3       2.110845892414241      16.266535576488394      10.152577778978788
   301   4    -0.15442368426116604      20.505369359556227    -0.13820905276681075
   302   2      1.9845700615223403      22.306612871588491      1.8901804388415597
   303   3      2.1524470679946361      22.159814656977986   0.0068990138942036632
   304   3    0.040843844675329304      21.984143256977625      1.9695152215777614
   305   3      2.1281723637121579      20.259595376171294      2.2023492224407626
   306   4    0.086886891046947218      20.242699857172976      3.6644781086158202
   307   2      2.0619979396800829      22.227585807752757      6.0666582976032473
   308   3      1.8516543434763362      22.338836142682421       4.084901224991845
   309   3   -0.044414937142498008      22.167405046738761       6.235875666313671
   310   3      2.0388213677167379       20.26375212993063       6.114420480846773
   311   4    0.021769892968853986      20.215171200430746      7.7739069629590327
   312   1       2.010427411343843      22.268792888443098      10.071973928802233
   313   3      2.0408793735661681      22.171810375882472      8.0534658672077128
   314   3   -0.067259631967951816      22.282225437545684      10.303755016403546
   315   3      2.3397960301919931      20.232480305286266      10.128800505613235
   316   4      3.9412178823363355      11.945913117411301    0.035390471087251865
   317   2      5.9805331638792252      14.137249128722479      2.1052124931851468
   318   3      6.1920181382674002      14.181650809154126    0.016046029814302989
   319   3      4.1174596574917466       14.23352519628712      2.0818497783595715
   320   3      6.1924021042319053      12.245483579266235      2.0623088717853868
   321   4      3.9678992273068534       11.89376255314251      4.1821831025595513
   322   2      6.0312852247964601      14.068800230544159      6.1680968081835603
   323   3      6.2538993281302657      14.375342247582342      4.0170858920196899
   324   3      4.1202012435210884        14.4003286010241      6.0243410237417701
   325   3      6.0369826792929375      12.207209117397237      5.9199717149704085
   326   4      3.7072991153413928      12.235073060571438      8.2838012235653284
   327   1       6.087505274489704      14.146128161214156      10.087694822867466
   328   3      6.0848492224619983       14.19263273880814      8.0561089428880557
   329   3       4.082116677420343      14.226559970350989      10.310361383430571
   330   3      6.0058933322709667      12.098927212733262      10.313818825404995
   331   4      3.7132086448397561      16.370070329458144   -0.034681790482940823
   332   2      6.0843613328207544      18.209989709280038      1.9402446124036647
   333   3      5.9344165927093595      18.493565226425275    0.026448855043804453
   334   3      4.1095491053207089      18.217726830139775      2.2184422562520991
   335   3      6.1748749415721615      16.229125253657195      1.8544192859763453
   336   4      3.6873155478982786      16.423793965944895      3.9149022810727052
   337   2      5.9577662271277418      18.201724212509554      5.9881878868921632
   338   3      6.2920356897172036       18.12438864512276      4.0770149026048834
   339   3      4.1030944332324184       18.14656614508538      6.0394247620507704
   340   3      6.3163431809022095      16.287722382462654      6.1684412499410142
   341   4      3.7770277116306419      16.028288040749896      8.0000556214283467
   342   2      6.1065808658003311       18.13785920009019      10.003894262556098
   343   3      6.0770838210892801      18.408528526874314      8.1155563541280102
   344   3      4.1544027335531242      18.203080873832135      10.323498984885163
   345   3      6.1707489076734916      16.268634087461152      10.130252372834244
   346   4      3.8076445214225645       20.09843692479145   -0.066983106807458989
   347   1      6.0007376757400612      22.220589529327349      1.9617187415608233
   348   3      6.0382604823043984      22.016429744286128   -0.048060194405101189
   349   3       3.960038789428149      22.275989063108202      2.2788516342692202
   350   3      6.0129103567458779      20.200210722890024      2.2845428529784368
   351   4      3.8869067985052181      20.159086284034345      3.7246177188870537
   352   1      6.0144332579794995      22.227723013794787      6.0727255424928961
   353   3      6.1600898315571131       22.44127551221397      4.0446241311650724
   354   3      3.9916179588308713      22.451117810799374      5.9894076567359429
   355   3       6.192110058807752      20.196796238190515      6.0184818873883623
   356   4      3.6779329741903259      20.266423101040083      8.1050629537230581
   357   2      5.9952643388194247      22.230110596739756      10.052788381905335
   358   3       6.198734992085293      22.177429403370311      8.1199037823764559
   359   3      4.0948376573752707      22.470057084798228      10.178450786989684