(written by ASE)

1080 atoms
4 atom types

0.0      24.299999999999997  xlo xhi
0.0      24.299999999999997  ylo yhi
0.0      24.299999999999997  zlo zhi

Atoms # atomic

     1   4     0.08450927568727061    0.046469433418862775    -0.32926798042820632
     2   1      2.0340108768322409      1.9304207822717978      1.9898403796905553
     3   3      2.0452986203848726      2.2148270009537878  0.00025759081107856892
     4   3   -0.081274486240148325       2.175680143606773      2.0096446429956232
     5   3      1.8367682358368469   -0.072402731956022703      2.0296647767288656
     6   4     0.38190457234952963     0.13208134680541855      3.9715519302266431
     7   1      1.9617280825190471      1.9719584897942881      6.0918570336233033
     8   3      1.8287531917300506      2.0074603158107003      4.0682243514883982
     9   3   -0.078137212600379577      2.0175584065572294      6.3730512520644362
    10   3      1.7935044733263865    -0.05780756402428025      6.1867027279628077
    11   4    0.030061696215972385   -0.055522777254218773      7.8318958680672415
    12   2      2.0771068466939333      1.8887157412063067      10.085147417166025
    13   3      2.0421326896170888      2.1507187230770985      8.1832290054901193
    14   3  -0.0013495012273840282      2.2877410029919525      10.104451786568308
    15   3      1.8559542725451612    0.031048568106036695       10.14907140855582
    16   4    0.026716469085287117      3.6698582348743622 -0.00018663263697401387
    17   1      1.9853713116310847      6.0665655072765707      2.0969929089521724
    18   3      2.0932816005996204      6.1151315224772356    0.050002729346898873
    19   3   -0.084322741426095096      6.2423471389269114      2.0575385535912081
    20   3      2.0799588262196052      4.0502066424054419      2.1859275936655433
    21   4     0.29129151030766182      3.7793525476596113      3.7269884906668502
    22   2      1.9248159121773825      5.9295156150761104      6.0768110337921151
    23   3      2.0296966850539659      6.2848619862811956      4.1451403736723327
    24   3    0.035038288138697415      6.1602123494370193      6.0942570519569479
    25   3      2.0589585386800984      4.0589847485214445      6.0458972668780264
    26   4   -0.063884394917404067      3.7536150897682496      8.0665218745607135
    27   2       2.004115339870153      6.0238303638680204      10.156178821931507
    28   3      2.1210448758779408      6.1510752998700724      8.0748811010825783
    29   3    0.042157083674779459      6.0481941004766355      10.084738119532206
    30   3      2.1325893344315245      4.0818571037559561      10.227871048534796
    31   4    0.090145753997380854      7.6559657813957012   -0.017877608512584048
    32   2      1.9183687820100679      10.090320230974116      2.0288730272024504
    33   3      2.2230621637719081      10.267598114764549     0.06671259715655356
    34   3    0.037971825390651553      10.282596906033783      2.0185226327551127
    35   3      2.0887099873360024      8.2133518529483602       2.025568551288186
    36   4    -0.10826155275742852      7.7693766286471302      4.0761871085862804
    37   2      2.0813738003485165      10.039477856438486      6.1277715944360924
    38   3      2.0110678423815247      10.290242664425369      4.0247256881491884
    39   3    0.069915919883419705      10.412626593907296      6.0698633254569323
    40   3      1.9703674054556712      8.1691757438904968      6.1367282373264418
    41   4    -0.24799335598466155      7.9158700880765371      8.1179960726029741
    42   1       2.046248879379946      10.089834306955272      10.054528302094351
    43   3      2.0835309347060678       10.39188564114923      8.0194469909412458
    44   3    0.023438800532850159      10.308303145565034      10.099129618080198
    45   3      1.9570919416636383      8.0815864592629083       10.14892414831075
    46   4       3.900932495735995    -0.11164023227475839    -0.32530152745434082
    47   2      6.0078300517803562      1.8252487559983777      1.9452043586384793
    48   3      6.0336920155316749      2.2661335191158667    0.044955105889106381
    49   3      4.0924713294522572      2.0338146166749786      2.1493756921158949
    50   3      6.1046222862555837   -0.031535342356635326      1.8939553399595397
    51   4      4.2208203461042411    -0.43254682834054603       3.960363301953894
    52   1      6.0525263697900238      2.0319893501080704      5.9901134528513129
    53   3      6.2752260937168343      1.9463793372744647      3.9688990775422854
    54   3      4.0088946241636094      1.9848427089906138      6.1423665212262755
    55   3      6.1833612432776777  -0.0096190679987314311      6.1976907017819078
    56   4      4.1777089635030222     0.15202299804801331      7.5969163141619278
    57   1      6.0303439904413878      1.9771691276871604      10.135068173281928
    58   3      6.0528293094747712      2.1311171738035153      8.1014564141439962
    59   3      3.9781375681454341      2.0088828413410287      10.301159664782595
    60   3      6.3135645874860593   -0.037357754263037786      10.029840245146618
    61   4      3.5223494438164424      4.0563283230659817     0.23411918839138157
    62   2      6.0035742221745894       5.938764591654202      1.9829320704696876
    63   3      6.0405734195254004      6.0389320395643011    0.042206150722351059
    64   3       4.095084451085274      6.2341887621992935      2.1271890723178819
    65   3      6.0704236571777317      4.0826285153209403      2.2348973176683824
    66   4       3.769180428123458       3.531286584606288      4.0004392294174211
    67   2      6.1244265308706192      6.0118262842443775      6.0164874800507908
    68   3      6.0527720437931789      6.3307598490310237      4.0301649233827543
    69   3      4.0175762701881341      6.2768703226160545      6.0564960349386245
    70   3      5.9538951367138715      4.0924578205261843      5.9976661246027145
    71   4      4.1458548170367475      3.6472372497589203      7.8173497782970713
    72   1      6.0537586885946126      6.0725508032930424       10.08605418318299
    73   3      6.0672332200713992      6.0416132804319131      8.0439866550950789
    74   3      4.0364046884991582      6.3012732599355399      10.120357928395615
    75   3      6.0445841759854471      4.0419533179565192        10.3303199214304
    76   4      3.7115919618172502      7.7932055527518695    0.012413279541592952
    77   2      6.0443346138508973      10.036158967275369      2.0998443853161821
    78   3      6.0604066145856113      10.400047138513701   -0.033776902358756196
    79   3      4.1041521804443244      10.309060734727707      2.1109289198855969
    80   3      6.0917293574416638       8.158431246604616      1.8936099579111958
    81   4      3.9546489889373695      7.7794049716798357      4.0648831026278085
    82   1      6.0245892318266989      10.070156063091687      6.0715880621167573
    83   3      6.2325366748374176      10.207026351516529      3.9816822391706075
    84   3      3.9966812072035944      10.158839501867844       5.876400236802767
    85   3      6.1250750796215279       8.063806662499843      6.2699636414894755
    86   4      4.0906536710813413      7.7267830023297437      8.0439578775655605
    87   2      5.9877099507148595      10.120737499270335      10.047751653990565
    88   3      6.1866997169194988      10.236878631746043      8.1280017468618908
    89   3      4.0944513821681454      9.9696185909050499      10.206241294587821
    90   3      6.3726559313109812      8.1283534838815115      10.030621478804457
    91   4      8.0765652116605011    -0.13885988195692409    -0.25307960051935352
    92   1      10.113198387941273      1.9254417744770318      2.0579199226853331
    93   3      10.169986889415259      2.1865458991021538   -0.010304569426953883
    94   3      8.0532780320700237      2.2002882950148432      1.9543504807944483
    95   3      10.262760022802539   -0.071738084045766967       1.897982782379557
    96   4      7.7101238640858645    -0.17414186410321705      4.2972055460331662
    97   2      10.019978761395064      2.0326922803757226      6.0428169881798901
    98   3      10.138474572131237       2.079380948384685      4.0975657502265861
    99   3      8.1383808563951039      2.1294196565522125      6.1544928370915954
   100   3      10.160337781860209    0.026430331653043197      6.0495098110364669
   101   4      7.6782884820534427      0.0813753283769552      8.0050642294372061
   102   2      10.035461022484874       1.968665184700046      10.156683398270312
   103   3      10.331440287653257      2.0588481646828622       8.090867174572816
   104   3      8.1595128505941528      2.2573251357795585      10.091552686719952
   105   3      10.073418978369864    0.061730417025991358      10.018955661868723
   106   4      8.2543779002732816      3.6774070372175451     0.14709667339370699
   107   1      10.076177713886112      6.0090247814334203      2.0306176962759435
   108   3      10.318703539491423      6.1189170594015669   -0.040558027295421441
   109   3      8.0195547248046548      6.2269038175862788      2.0481855998747354
   110   3      10.290609993914568      4.0290778628509196      2.0432843273222869
   111   4       8.003955723303946      3.6507806876790818      3.8526524157090121
   112   1      10.089090966460528      5.9757472705481334      6.0909310603501368
   113   3      10.174666630644253       6.173127354879429      4.0499886681212534
   114   3      8.0482367839662938      6.0605636973878774      6.0020669891364093
   115   3       10.39441030666627      3.9686603367258928      6.0936407060387197
   116   4      7.6304032695288457       3.885978251520402      8.1967543691746858
   117   2      10.057988751113331      6.1205956545393398      10.103288444433417
   118   3       10.36320450808307      5.9995904558231539      8.1220648188356748
   119   3      8.1556734664436501      5.7982641463306406      10.132853086702603
   120   3      10.441733608173379      4.0148307415428146      10.093252196217191
   121   4      8.2374760473891726      7.9990154128879078     0.41941013797445498
   122   1      10.086426488946177      10.136560681370344      2.0456736157238504
   123   3       10.21267624252277      10.310554733785915   -0.077667582549235198
   124   3      8.0484231123716885      10.168842569633973      1.8002263305812372
   125   3      10.156350610321024      8.1174760451044889      1.8983424204673467
   126   4      8.2970863123903129      7.6576289002989828      4.0424512527809418
   127   2      10.125319537942312      9.9586155985968716      6.1036024086788361
   128   3      10.066966419903459      10.241377714791829      4.0934494646065414
   129   3      8.1522101264708748      10.335178240771581      6.1286830304516178
   130   3      10.057736743082179      8.0774938349427128      6.0824062267868078
   131   4      7.7703132290540626      7.9836359409287754      7.9721433968799538
   132   1      10.157533969420305      10.055800944551365      10.097343704766491
   133   3      10.164814135578414      10.276448893127291      8.0587675279934246
   134   3      8.1188180555449794      10.355690997954007      10.103687241591738
   135   3      9.9165761099419516      8.0367156193965084      10.112492989786155
   136   4    0.099169693182216093    -0.31286158125949903      11.971878027628799
   137   2      2.1757549880865565      2.0543593480897044      14.160078602405868
   138   3      1.8085239021193498      2.0571978416317438      12.173618765565944
   139   3   -0.087661134181963571      2.2727797260896154      14.211292855087741
   140   3      1.8609095525604979    0.060273175618393474      14.244397815900635
   141   4       0.345322054405096    0.057557961264749651      16.211986000192397
   142   1      2.0489379421212304      2.0145330622528559      18.167475748280559
   143   3      1.8372038935055324      2.0650083089734155      16.130894435372529
   144   3   -0.061496417515681842      2.3025717085262984       18.19528412643875
   145   3       1.717816974507431  -0.0075893999972367404      18.161991843953238
   146   4     0.31895729940894146   -0.043876996249330759      20.076201168478093
   147   2       2.035329169848981      2.1030305955793906      22.185917207849954
   148   3      1.8490725774886829      1.9131978522624036      20.280791156524796
   149   3    0.043556009453936534      2.0409351331172614      22.509019945201672
   150   3      1.9708748097462483    0.056317375874455247      22.512678795658381
   151   4    0.037159464485694974       3.788646308145537      12.080331717357229
   152   1      2.0077116066221619      6.0421100732263877        14.0886415656725
   153   3      2.0874169603208879      6.2000152989853765      12.088786281533849
   154   3   -0.065438857007887791      6.1058355364598498      14.368741026962574
   155   3      2.0161313467664952      4.0071292111763359      14.224252819264425
   156   4     0.25778309373921066      3.9190101557628463      16.034541051646649
   157   2      2.0067018567634936      6.1261619210269735      18.128456599193154
   158   3       2.021756534812793       5.996421936441469      16.230892483332596
   159   3   0.0088361567083598304      6.0090879965717026      18.382788398003331
   160   3      2.0501194968764267      4.0933813453539605       18.46128740130494
   161   4     0.18983985069816475      3.9890306069596582      19.938142645032055
   162   1      1.9883870492165985      6.0346081361586448      22.291540881876067
   163   3      1.9569776725926273      6.2866458358959605      20.285627429935605
   164   3   -0.085418128993305573      6.2031966678631729       22.36280756014904
   165   3      2.1027526135390202       4.020065460459306      22.219085699706003
   166   4   -0.057115316594300074      8.2132114771258085       11.68994798755006
   167   2      2.0488229154011486      10.083943945297568      14.100424340832518
   168   3      1.9884825918619042      10.077771785311146      12.205591664650589
   169   3    0.015262638841473219      10.233414665901021      14.372756703812779
   170   3      1.9625422420463463      8.1566564409302931      14.418327446755992
   171   4    0.082050514631964458      7.8990346212362299      15.929443310416971
   172   1      1.9918453590841192      10.099732203030081      18.261181888070759
   173   3      2.0428381960232822       10.38719422521684      16.216142557751493
   174   3    -0.05159852171146373      10.277083883086766      18.182962736027715
   175   3      1.9981569060220645      8.0691293169097946      18.222968271317612
   176   4  -0.0015385515252111395      7.7404283907456577      20.125651958025653
   177   2      1.8749588739889604      10.090748173327423      22.233581918075007
   178   3      2.0753248466647283      10.078645606334103      20.349061001000809
   179   3   0.0034430798713722031       10.19465219870866       22.48149515335475
   180   3      2.0992762658635988      8.1895578242710645      22.473482737614308
   181   4      4.1492289960298905    -0.28899922476530432      12.086545247238563
   182   2      6.2542431528958859      2.0331724049130822      14.098907753553144
   183   3      6.1181322058931862      1.9307169009771996       12.19998060061582
   184   3      4.0409067047007126      1.9781508028846728      14.159924906433906
   185   3      6.1137783207448271     0.11278707964300154      14.413954490582078
   186   4      4.3601341799876199    -0.32440754677624273      16.090508393562697
   187   2      5.9282640913185283      2.0289300925514038      18.118574333282982
   188   3      5.9636029254787033      2.2784782536482404      16.228289813407972
   189   3      4.0653078534167921      2.0387462861620924      18.405058332516354
   190   3      6.2258312429871809     0.12154281615080779      18.146439960296096
   191   4      4.1314201310700813    -0.28050481216914064       20.23488690456578
   192   2      6.0968604474349428      2.0174374833522877      22.223607533493574
   193   3      6.1724215076945343      1.8965908336032353      20.339832153957499
   194   3      4.0662363748650945      1.9055203327685961      22.305530741630996
   195   3      6.1088224747484059    0.082229496468522914       22.59360173352059
   196   4      4.2329825350819226      3.9883678129237738      11.777081844901447
   197   2      6.0619486629223038      6.1624376960967826      14.078346810852945
   198   3      6.1419767174777888      6.1925977764599045      12.170026495252399
   199   3      4.0745658360063288      6.1969707554002325      14.317628177765384
   200   3      5.8940748293577387      4.0702678730008603      14.055665689551033
   201   4      4.1938522563270979      4.3048643579110513      15.937229265113233
   202   1      6.0193634309795003      6.0776869730666041      18.183609441021137
   203   3      6.0454553922845795         5.8011688019692       16.17995364315448
   204   3      3.9954144110926917      6.0652481977989376      18.428465630152473
   205   3      6.0129312953439191      4.0100022778233058      18.568045617384925
   206   4      3.9650917126636385      4.1027020320585867      19.908324940407237
   207   2      5.9658121503196142      5.9909445129620105      22.275271518584276
   208   3      6.2059380102518071      6.2257933931023492      20.375909156381116
   209   3       4.101821368127947      6.2335535702055829      22.268662960242136
   210   3      6.0600207845626013      4.0730591639994227      22.212060953558098
   211   4      3.8066126775081339      8.0068373788643754      11.824951555645908
   212   1      6.0369479010234812      10.120086858301244      14.125480740755231
   213   3      6.3600339772945738       10.00181037528116      12.107470434303069
   214   3      4.0003317126068385      10.040671024429503      14.347570794053107
   215   3      6.1269157028618055      8.0858012317341927      14.430438087690398
   216   4      4.0037387218564273      8.0820843920574053      15.875585426500667
   217   2      5.9452934332058245      10.047041552113107      18.212431932077255
   218   3      6.0713261388974384      10.286759076257807      16.324120790943006
   219   3      4.0843055681133391      10.137267738188351      18.368784083044662
   220   3      6.2137502957795867      8.1583296827931804      18.249922194523364
   221   4      3.7303248004402803      7.8700701513450726      20.179031445512333
   222   2      6.0418422367777413      9.9929413537482006      22.328919160971203
   223   3       6.259817136880601      10.146916477413653      20.321473591953147
   224   3      4.1335142129656415      10.203201446762739      22.240053428972566
   225   3      6.1887951273352462      8.1309624045651958      22.434641969417534
   226   4      7.8850715167948753    -0.25469265330225105      11.892161613156738
   227   1      10.072075612480161      2.0733527324784231      14.172799565745212
   228   3      10.299941290535491      2.0452133928622556      12.075280666598454
   229   3      8.0856033190737655       2.165052142578646      14.259752189578586
   230   3      10.232120777068879   -0.046916646485722233      14.222583594827553
   231   4       7.856734643667175    -0.36745160771651625      16.115908337345932
   232   2      9.9640164620413127      2.0150682415523677      18.180808025605412
   233   3      10.294765348210763      2.0320989758809547      16.295448305485365
   234   3      8.0834848806129926      2.2116635828033209      18.258892542339964
   235   3      10.069887429590949     0.05085135606961564      18.351225257022548
   236   4      8.0356041885896481    -0.35852813506468284      20.105336905624352
   237   2      10.248377019703366      1.9476822054484879      22.210523638045352
   238   3      10.053699063008603      1.9716473078757188      20.303661541196306
   239   3      8.0694900594245826      2.0607039387057595      22.537194608038675
   240   3      10.086933094914629    0.036070837187737889      22.521027044787989
   241   4      7.8197426407998858      4.1131201028220064      11.878329280830414
   242   1      10.058958713338004      6.1013520975005147      14.101672287555795
   243   3      10.293814133324229      6.0216245024670121      12.080538115102414
   244   3      8.0367086008534105       6.058165425392577      14.340249237272824
   245   3      10.367061501070895       4.076775092732051      14.173518659755675
   246   4       8.120649695796395      4.5232729085566055      16.175333135211506
   247   1      10.108512368913747      6.0766918573776634      18.217548774967838
   248   3      10.228874629823217      5.9947490430461547      16.213044704211832
   249   3      8.0906576482168902      5.9616635182004707      18.320180221083874
   250   3      10.266058920569082      3.9772051969263202      18.377997135769721
   251   4      7.9455414732661271      4.2221003152582535      19.890002901726209
   252   2      9.9844542791065347      5.9518789897483897       22.31985668443539
   253   3      10.167103302644112      6.1729902415642384      20.366154284492595
   254   3      8.1133964699073466      6.1109216881882897      22.404666910235516
   255   3      10.150336575683081      4.0581666490259609      22.290533891143198
   256   4      7.9446306292448652      8.2356642272575371      11.833730376568592
   257   2      10.076634368092792      10.128499736728918      14.061123913404709
   258   3      10.017562468402996      10.141405362029786      12.199660995143692
   259   3       8.147473501119082      10.127497389731257      14.443173716713911
   260   3      10.086450265649022      8.1767398453455762      14.416363983021716
   261   4      8.0590378991936316      8.1151875710799253      15.898048269147091
   262   2      10.034841628063528      10.151553817606903      18.225010606178667
   263   3      10.284347591282895      10.181166323973967      16.322916659524978
   264   3      8.1466098005708094      10.268464835117216       18.25159924316868
   265   3      10.164115770323711      8.1924709345347253      18.335849701042754
   266   4      7.9792993677130388      7.8002255570641577      19.894139804529971
   267   2      10.106461271210856      9.9914636487817585      22.252928655843714
   268   3      10.137794456559746      10.198755727310703      20.290120627393733
   269   3      8.1443410595845442      10.318424298668782      22.358885557137018
   270   3      10.173072701397304      8.1148661374931539       22.35851270404396
   271   4    -0.22531996302797463      12.324607945001139    -0.35303997002813148
   272   2        1.93571912780374      14.156804262466553      1.9634325279381801
   273   3      2.2391317443407535      14.166031666523027    0.056635415608769578
   274   3    0.054329926136959472      14.265988089380063      2.0135629660496193
   275   3      2.1581817398804883      12.232780397003932        2.09531943619784
   276   4    -0.16260233203281532      11.967761188579015      4.1025407063947785
   277   2      1.9373183150912048      14.177012284205592      6.0283819650856385
   278   3       2.086960554467447      14.374405078008706      4.0595274644563188
   279   3    0.056762527436034861       14.21951928473351      6.2332937478704222
   280   3      2.2328679136342955      12.254879656210926      5.9637089193862982
   281   4   -0.029117083366137098      11.792523374017945      8.1960988401371253
   282   1      2.0096665313980497      14.192210864645025      10.074484000769646
   283   3      2.3010808574781665      14.133743109101879      8.0396397374718518
   284   3   -0.011337448530802999       14.18611012095036       10.25821208796321
   285   3      2.2098856770530384      12.158066860543578      10.208176865243859
   286   4    -0.10092705340191134      16.028623309621334    -0.35682935402738303
   287   1      1.9635443708340112      18.224105677764236      1.9711825144435715
   288   3      2.3142071268632498      18.289610793419079   -0.050566384811148488
   289   3   -0.068997606523034397      18.229356060130151      2.1374796704922518
   290   3      2.1964508474308029      16.166904622182894      1.9657336135541617
   291   4    0.063690242694587756      16.510051870603807      3.8063695627704806
   292   1      1.9966828446961278      18.213000305235528      6.0694790291304326
   293   3      2.0544832814550937      18.075393338530947      4.0582187875628151
   294   3   -0.033390312501621403      18.233855048556446       6.341332989028964
   295   3      2.0489925336683061      16.175635453929871      6.2944900796473915
   296   4  -0.0092604099155470087      16.296465256299729      7.8025530173040121
   297   2      1.9616852289827487       18.21907447889653      10.118340957959182
   298   3      2.2435082343313835      18.309614037912798      8.1750727797243012
   299   3    0.057517012465941514      18.384005572431846      10.146634275620494
   300   3      2.1241354266711534      16.270135122135095      10.145216369830285
   301   4    -0.16466419964925721      20.547946844844052    -0.12290765094136162
   302   2      2.0061409611751437      22.297624977232324      1.8973691410833358
   303   3      2.1445674346259538      22.157298976820403   0.0042346478123026507
   304   3    0.031033769280334449      21.998221476648329      1.9616107030379668
   305   3      2.0954326634823714      20.256125841976985       2.187697523754748
   306   4  -0.0096497865153081577      20.271387148784438      3.6474398423817824
   307   2      2.0424212757139366      22.238162992949096      6.0963216264115401
   308   3      1.8865631090064796       22.35706358585437      4.0830495656661281
   309   3    -0.03255394835266185      22.160512982158604      6.2402761932161024
   310   3      2.0919909274590922      20.261120447776523      6.0633770768268116
   311   4   -0.033723164681128501      20.192063508231339      7.7816597072701841
   312   1      2.0099039871493263      22.263774345925743      10.076221049434404
   313   3      2.0687653822608354      22.137856952695888      8.0579465352175124
   314   3   -0.066519497910512565      22.278289350715113      10.305539984044582
   315   3      2.3447822348075262       20.22870002568019      10.144483487723839
   316   4      3.7990515167242664      12.051059950634974   -0.072510492457445286
   317   2      5.9935118782712422      14.130936678164229       2.123049333940505
   318   3      6.0909875511291389      14.160187548658202 -9.7097738067567413e-05
   319   3      4.1237011550935945      14.207605711652256      2.1159348747741227
   320   3      6.2367680834905244       12.24085190051842      2.0464997042958202
   321   4      3.9739587037324409       11.90078161994429      4.1868631037297561
   322   2      6.0382253452022043      14.066641478758442       6.182778114459393
   323   3      6.2758366071144911      14.353003145476201      4.0184436047162473
   324   3      4.1235033209573233      14.379019225826541      6.0076511009726916
   325   3      6.0548816474950558      12.206545921294579      5.9143284784919858
   326   4      3.7250558991480105      12.249028469638976      8.3003752334679906
   327   1      6.0928979416716844      14.157301663697469       10.09644187655214
   328   3      6.0651895192116578      14.181648335928246      8.0644169069738112
   329   3      4.0813779732807154      14.225549441823683      10.323159128677709
   330   3      6.0039240261599973      12.107436381066968      10.333574984932515
   331   4      3.6712797006125344      16.271992965847151   -0.011951174059801792
   332   2      6.0167497691899365        18.2095243518304      1.9380372931218854
   333   3      5.8927845320666705      18.460800526138538    0.016683077930669074
   334   3       4.102301219560923      18.256839920044364      2.2019697422033992
   335   3      6.1567034442571593       16.21454604452866      1.8578972482474363
   336   4      3.6675560477936657      16.371082610560233      3.9494414123204273
   337   2      5.9697339165623555      18.195401348660774      5.9796969584182786
   338   3      6.2875060182793874      18.173967848060318      4.0585419913874397
   339   3      4.1096412006990768      18.180929035763732      6.0403517124088051
   340   3      6.2812830217157121      16.285207832031528      6.1475632843621213
   341   4      3.7768929729551473      16.042856063037942      8.0069457795188868
   342   2      6.1101224030425794      18.135113546318806      9.9957233673822063
   343   3      6.0789522876051283      18.411680695583655      8.1077401819958066
   344   3      4.1534853609459601      18.205921902242967      10.310610741498456
   345   3      6.1769458846610528      16.267392780261044      10.122183596110993
   346   4      3.8405757686281983      20.138206466443023    -0.04962983855714459
   347   1      5.9958501708712175       22.22196251417661      1.9664153424674944
   348   3      6.0362187823280937      22.040283727684706   -0.049644390423667917
   349   3      3.9665511059414551      22.288900142961971      2.2259639537997415
   350   3       6.200218172038066      20.188502905445862      2.1511187112399481
   351   4      3.6528863745668505      20.021945250167359      3.8971944539547994
   352   1      6.0040878575149925      22.224015485687392      6.0721759362732559
   353   3      6.1699892461825376      22.414921911145374      4.0377429050460441
   354   3      3.9890158502251953      22.461475085744105      5.9957124370708579
   355   3      6.2114640200869458      20.201090848068468      6.0233318195435528
   356   4      3.6890657568523868      20.251199827795155      8.0915314143105519
   357   2      5.9979203023404084      22.236460407708527       10.05133216369668
   358   3      6.1817007766715211      22.168483219159437      8.1232681143516352
   359   3      4.0951303743302514       22.44039216385314      10.217005733973734