(written by ASE)

1080 atoms
4 atom types

0.0      24.299999999999997  xlo xhi
0.0      24.299999999999997  ylo yhi
0.0      24.299999999999997  zlo zhi

Atoms # atomic

     1   4     0.13982434515425721    0.051042188736374956    -0.37004731317364536
     2   2      2.1302291845346204      1.9741670525112287      2.0496176658913101
     3   3      1.9718933821480975      2.1432189638948911    0.078100112084899767
     4   3   -0.063767576555216574      2.0307553600378276      2.0742537152020986
     5   3      1.9263848093178875   0.0047669362685721752      1.9992064167361727
     6   4    0.019231879528446912    -0.24039517263578555      3.7478520894158027
     7   1      1.9792612899557842      1.9551419408877162      6.0623692675171652
     8   3      1.8929410988942985      2.0341462699071395      4.0193809769665778
     9   3   -0.049058498445407293      2.0352502128873153      6.3659583049606674
    10   3      1.9323786328434809   -0.046878198960612689      6.3875456433240192
    11   4    0.049009234409960425   -0.085360616068623607      7.8724303723160478
    12   2      2.0515954871658746      1.9308977447322799      10.101308022857785
    13   3      2.0294345652757069      2.2806504022705836      8.2048125883091831
    14   3   -0.051555825936062193      2.2354630565666076      10.061413808690036
    15   3      1.8693031750639064    0.065173926072758862      10.085989374419301
    16   4     0.43041003001836559      4.0693001478971684   -0.053853014372775863
    17   1      2.0020732800757775      5.9876638275345782      2.0557430978966398
    18   3      1.9060004543666089      6.1247215762932568     0.02791018058921441
    19   3   -0.088093971782082336      6.2376310678097182      2.0957079196063333
    20   3        1.77828732580143      3.9797922594148463      2.1044828602996781
    21   4     0.23239973819034529      3.8056484991736319      3.9036449007856087
    22   2      1.9834690932859453      5.9820976023474559      6.0521836302920855
    23   3      1.9735901865948648      6.2502893589280104      4.1154884740903217
    24   3    0.018060544458548603      6.1825739557775714      6.1512460416161669
    25   3      1.9586318063235555      4.0702460688701283      6.0214337762832049
    26   4    0.092294118283707899      3.8098581591040088      7.9814191499702103
    27   2      2.1738382601143105      6.1090153104626204      10.113625347347945
    28   3      1.9526919099429085      5.9724976751588743      8.1478104200745012
    29   3   -0.090558471194957885      6.1599334916997073      10.074058181054212
    30   3      1.9745795441968961      4.1226521409755996      10.362978296130986
    31   4     0.11272674333970481      7.7175089245834094   -0.021672376142260925
    32   2      1.9176644018592943      10.062845943868389      2.0482173147916436
    33   3      2.2131233775056751       10.21671463103678    0.062061941713426098
    34   3     0.02456250777897033      10.269197856377779      2.0677731579297087
    35   3      2.0743152600238894      8.1751360590691196      2.0312681927427376
    36   4   -0.083412364239145109       7.747734591901259       4.033070874451866
    37   1      1.9831608091573307      10.072761287174295      6.0481329229578478
    38   3       2.063844995421507      10.222474066379487      4.0023911854738552
    39   3   -0.023902157382364935      10.361609122426291      6.1726348440758327
    40   3      1.9983055331341586      8.0644617401356236      6.3245736074752177
    41   4    0.076235051191166525       7.900081950344231      7.8791858358146785
    42   2      1.9273267218028642      10.180130863643091      10.059564922863443
    43   3      2.1655041570858828      10.262597852117786      8.1562672206728521
    44   3     0.02591908302390716      10.240329372518612      10.019756741881261
    45   3      1.9376418569336815      8.1090269019338024      10.042831060478127
    46   4      4.0887256975702178   -0.032896895935319956    -0.38885206143573781
    47   2      6.1880535699010144      1.8381928582290601      2.0526028117779003
    48   3      6.0068998388418944      2.3155543770260127     0.12304023175150744
    49   3      4.0236994496204153      2.1274865761311768      2.0333356083659306
    50   3       5.998115159132964   -0.002100252957119087      1.8470223310506448
    51   4       4.306586664910709    -0.38353178189796922      4.0136002287687891
    52   1      6.0954157882135815       2.025865514763411      6.0305233082293714
    53   3      5.9343712674804685      1.9312789347034578      3.9973714435999992
    54   3      4.0150866634885878      2.0449351793175747      6.1733690247506408
    55   3      6.1633541108469894  -0.0062448746131300676      6.2417034705094698
    56   4      4.1196029896974364     0.10759721244627875      7.6057996543333992
    57   1      6.0337234735576724      1.9928610299311649      10.173747799705017
    58   3      6.0814384142569393      2.1979820912579409      8.1277613677675795
    59   3      3.9580694049212446      2.0888192183180068      10.281760915693132
    60   3      6.2515635622079744   -0.028873989217640054      10.029670003461677
    61   4        4.14009192136613      3.7812392125336292    -0.24888841993854027
    62   2      5.9766199625988223      5.9253850730420172      2.0086621511843075
    63   3       6.032007709699716      5.9774322612284703    0.084997105526505398
    64   3      4.0594576638714841      6.2202256212351763      2.1409450103526537
    65   3      6.0513506583708638      4.0759273966444143      2.2893171691450633
    66   4      4.1534027309396491      3.5682168329200397      4.2791694806838327
    67   2      6.1275181957806897      6.0126255795842187      6.0612388190661441
    68   3      6.0084557241902727      6.3699265748919212      4.0567028121526754
    69   3      4.0065152626599758      6.2050868925187181      6.0692401085820933
    70   3      5.9032506596046712      4.0929427310080753      5.9195728915570722
    71   4      4.1673891967434509        3.65682134802924      7.9206072495780848
    72   1      6.0367281721473312      6.0854716531168904      10.098523388858297
    73   3       6.184814691640466      5.9105390091463228      8.0496510969058566
    74   3      4.0251326538868026      6.1043343403379966      10.264290790118194
    75   3      6.0635428526602411      4.0467994137383005      10.393469270240892
    76   4      3.6925378351294276      7.7293993600624367   -0.015420643004205092
    77   2      6.0547194023161461      10.010666749941368      2.0735913481367576
    78   3      6.0385578515795917      10.377898424285538   -0.009196284055959068
    79   3      4.0996487172793632      10.263378631681821      2.0886390016395926
    80   3       6.087632631557895      8.1321176191755686      1.8871040385709621
    81   4      3.8948990138007495      7.8015536870283286      3.9653065237763396
    82   1      6.0996492343608963      10.047242904119731      6.0255856020064096
    83   3      6.2065951432421471      10.183493805212716      3.9768183849172556
    84   3      4.0577027934925347      10.154055449243101      6.1192646696486772
    85   3      6.0830033606320812       8.056350390674389      6.3518139939228311
    86   4      4.0051363349739759      8.2364006856773706      7.6420135331664749
    87   2      6.0526829674916227      10.100487777411411      10.068434955143232
    88   3      6.0419702868075511      10.304821820319491      8.1319005880375208
    89   3      4.0706264986003351      9.9941861350083947      10.298890884472332
    90   3      6.3556368034242015      8.1251869766838674      10.001957174403275
    91   4      7.9781261390189391   -0.010266545613165166    -0.37441315064943581
    92   1      10.105671630386697      1.9537945468620062      2.0029830395487669
    93   3      10.284053802334528      2.1227656029445567   -0.023188051459641409
    94   3      8.0673004952585785      2.1489589519628747      2.0272278877002061
    95   3      10.334502933179323    -0.04299070960478496      1.9263872671496949
    96   4      7.8401010055535707    -0.32609036163964306      4.4660515123017532
    97   2      10.011872735293295      2.0499176256923106      6.0108250617132626
    98   3      10.148672900622431      1.9884474535986618      4.0930280360284712
    99   3      8.1313910575999824       2.080788518665992      6.1845079793458151
   100   3      10.208415390515448    0.062384102676687439      6.1469080083783778
   101   4      7.6773528196654333     0.20375420951109138      8.0080106187308147
   102   2      10.017944895757779       1.975107288050306      10.172140230338035
   103   3      10.337094725864112      2.0965402282222017      8.1337241835041869
   104   3      8.1437477542034369      2.1944377042410257      10.095634236397272
   105   3      10.102780426660056    0.067096192835275265      10.049959806791392
   106   4      7.9810804075141606      3.6913567936333944    -0.18082526192352913
   107   1      10.085733690875934      6.0211169838265937       2.013828735873187
   108   3       10.35141830580409      6.0374735427847934   -0.031014999318354643
   109   3      8.0158091640083828      6.1871426250616732      2.1064498275910113
   110   3      10.228242295851347      4.0129214517319003      2.1420145620041513
   111   4      8.4150568537292489      3.9876169892443785      3.7125479046494698
   112   1      10.103410351864268      5.9766048269971677       6.098580883049598
   113   3      10.087263277061842      6.1538935393506069      4.0591286239004187
   114   3      8.0441013219860711      6.0700038617162555      5.9738447502078511
   115   3      10.328828530006055       3.966539674713089      6.1064902101605654
   116   4      7.6913807976146895       3.914967500375969      8.2413394881525814
   117   2      10.064720674888616      6.0982628553035196      10.104139140544266
   118   3      10.348485266154839       5.981212059542683      8.1436432087754049
   119   3      8.1681481914623078      5.8657484811023295      10.128650694760278
   120   3      10.410417769155934      4.0378952218050559      10.141607420908688
   121   4      8.2534412236858916      7.9906450697250264      0.4262766279475656
   122   1      10.100755229198619      10.128810212865794      2.0547920792918908
   123   3      10.180893211998471       10.35969192001858   -0.068761060445575756
   124   3      8.0501180972081308      10.147802064166457      1.8121328273299353
   125   3      10.167857319705545      8.1062222017342762      1.9151254521804153
   126   4      8.2868722119388707      7.6861332639082498        4.05836683762272
   127   2      10.173272515120713      9.9320734287612407      6.1314083045604226
   128   3      10.026418111458803       10.24380408078285      4.1107860133573606
   129   3      8.1452660401100268      10.338019103217357      6.1471332773944125
   130   3       10.04072257059897       8.063457630777398      6.1563899526475652
   131   4      7.8129804700468668       7.913002796157862      8.0520398825738511
   132   1      10.111536470913556      10.058648388153276      10.127801204434066
   133   3      10.148403510620211      10.314531819615523      8.0674544018235235
   134   3      8.0618136998267733      10.385769094567729      10.061663834173192
   135   3      10.023336167341395      8.0213195776545181      10.005542694975366
   136   4     0.12555550695935391    -0.26197610578558123      12.000017432511738
   137   2      2.1601662982912675      2.0452901826916059      14.152195579436848
   138   3        1.77336864690091      2.0073116719148176       12.17201333479033
   139   3    -0.07619366028655794      2.1224174563679488       14.36054892249882
   140   3      1.9182224774091385     0.10359777365663303       14.32581580957096
   141   4     0.30002490108485319   -0.099650868100240153      16.216474221579343
   142   1      2.0307932913391298      2.0166991233276534      18.147746755751161
   143   3      2.0108467101185257      2.3074613025998874       16.12469787064914
   144   3   -0.051684987030850872      2.2215158977594314      18.093265449119077
   145   3      1.8375528548901863  -0.0029466552742556246      18.151196091441395
   146   4     0.24344263424713627   -0.083132218668592772      20.032677800837909
   147   2      1.9933253080434257      2.0524049210471698      22.101396328537906
   148   3       1.913812206170507      1.9674579114064663      20.225938491041834
   149   3    0.052846060367746507      1.9163067019454199      22.444913361323515
   150   3      2.0533139213424008    0.056627705626062209      22.466024953571129
   151   4     0.29322184972268495      4.0605828782403712      12.147120391811997
   152   1      1.9949569307525679      6.0708412338556625      14.117932633473739
   153   3      1.7553336367996688       6.240077955561425      12.076270391965295
   154   3    -0.09637445371442882      6.2081498934449089      14.237857281017972
   155   3      1.8064212685693688      4.0280467331279883      14.026047835682245
   156   4     0.24899672369128401      3.9200518757286407      16.044104557924967
   157   2      1.9527382952521055      6.1067401326537167      18.077366668330072
   158   3      1.9986534646480494      5.9119903906871478      16.193745659723749
   159   3  -0.0024585187471140514      6.1659166273460437      18.349149053573544
   160   3      1.9454361840783694      4.1193112897239246      18.462572379187922
   161   4  0.00090350145177279097      3.9413334593357727      19.891787908527018
   162   1      2.0044727799974553      6.0517930131769804      22.246222211930519
   163   3      1.9745961753818473      6.3275463609519988      20.242629283297308
   164   3   -0.084923470312498694      6.2971103025593314      22.315916724355883
   165   3      1.9315482106557373      4.0073961430591698      22.316939745586957
   166   4     0.05828754733887781      7.8738581679397237      12.089746288564575
   167   2      1.9849091154250134       10.20043652906744      14.131408270848389
   168   3      1.9966036288332003      9.8918325655535124      12.161885897892775
   169   3    0.040305893639217764      10.122383051961382      14.302394086539206
   170   3      1.9279514598612402      8.1380040888318046       14.42839569252334
   171   4  -0.0036820904276262628      8.1377876567762897      15.815942262206514
   172   1      1.9872225508931887      10.115789341905453      18.207086776273798
   173   3       2.287853093345058      10.197762849955168      16.153505600955246
   174   3     -0.0247286104832284        9.99193230779359       18.18607908964383
   175   3      2.2180250943144904      8.0715345161754364      18.113815181151118
   176   4    0.032025059602503805      7.7480729075070744      20.203061388960762
   177   2      1.8821253404750211      10.084491526490076      22.226072664563212
   178   3      2.1112678004318171      10.057072384389169       20.33043786095357
   179   3  -0.0038803264882705602       10.09072631874999      22.452085851558014
   180   3      2.1514618461218933      8.1781129283512595      22.441787010106257
   181   4      4.2414527335366436    -0.24125481622774567      12.086070987391212
   182   2      6.2658725434349201      2.0137549575877007        14.1630775056683
   183   3      6.1019386556618178       1.830454911787075      12.231604502048645
   184   3      4.0312167606835159      2.1339775322278265      14.137021070684018
   185   3       6.032661630718378     0.11058276536547136      14.481562184757939
   186   4       4.339741110862354     -0.3366958637535436      16.152816724497146
   187   2      5.9524930412067745      1.9984835301431236      18.317900749965908
   188   3      5.9646580985339899       2.418539898013587      16.164659966883431
   189   3      4.0532160728628277      2.2964067633158001      18.192649211519917
   190   3      6.0455580902356321     0.11082667370189443      17.915957002545156
   191   4      4.2422278123216319     -0.2756073183681606      20.311902200650696
   192   1      6.0892691236004648       2.017442795873988      22.196091392045926
   193   3      6.0729694994112728      1.8342699720946531       20.18696496414848
   194   3      3.9862353695610135      2.0424619989381907      22.443968272021017
   195   3      6.0133029129859636  9.2843872007699439e-05       22.56412668957077
   196   4      4.2439818686054913      3.9874151473000632      11.842014523159367
   197   2      5.8801243723403962      6.1137281530159751      14.165291586719967
   198   3      6.3025003974092177      6.2153339730750528      12.202420346803235
   199   3       4.028251206903704      6.2058435139416135      14.067252325029806
   200   3      6.0523694169654281      4.0865740517025166      13.908691493954411
   201   4      4.0886315196645615      3.9223493917739267      16.230754360335538
   202   1      5.9894220028318736      6.1020754705873248      18.176021938661375
   203   3      6.0491458654692263      5.8065498951577785      16.119739131820641
   204   3      3.9781585050081643      5.9408902423677725      18.403982018282704
   205   3      6.1940663236313043       4.034767451999052      18.366968881418035
   206   4      3.8682178616395433      4.1524979428395232      19.921343290549675
   207   2      5.9715202800368115      6.0142486724815916      22.210672821880241
   208   3      6.1800401025569611       6.107380696611437      20.339047104711497
   209   3      4.0824792860298009      6.0851847576471414      22.337289130706708
   210   3      6.1302789933336896      4.0984498745300746      22.346658952144015
   211   4      4.0225229742481545      8.3712007945509654      12.196825606515835
   212   1      6.0248365456106985      10.121819159254482      14.140389119934767
   213   3      6.2313702194206586      9.8831978002088512      12.118435639245034
   214   3      4.0107275881524656       9.862224073438874      14.063296688394212
   215   3      6.2771219662279325      8.0278865015772976       14.31633556716289
   216   4      3.7454902708345044      8.2760995257931373        16.0085271108331
   217   2      6.0286108787657628       10.01886118137087      18.153026487102441
   218   3       6.043944850143669      10.144744455838691      16.253020376241896
   219   3      4.1238364549617286      10.205400159837817      18.429190396910787
   220   3      6.0796446662420669      8.1135397881266993      18.257301350069117
   221   4      3.7526716377948151      7.9430722119036679       20.02478616676413
   222   2      6.0597836919655341      9.9754684662665145      22.315758963915808
   223   3       6.197873179054401       10.14523125063508      20.354397546059989
   224   3      4.1249551875629304      10.281029585687319      22.278823296335219
   225   3       6.096497548814523      8.0979072913540051      22.474417961416087
   226   4      7.8979504094855733    -0.21166953177409362      11.925310861227313
   227   1      10.083718368662684      2.0455626878662918      14.191917803622083
   228   3      10.262326354280145      2.0422565503798809      12.097664772524908
   229   3      8.1069502272617626      2.0774134407422657      14.285126918378189
   230   3      10.344605629267752   -0.045455312798333536      14.234636344795435
   231   4      7.8592080412657808    -0.33824396863770262      16.193368127067135
   232   2      9.9770771339764455      1.9986120111539298      18.180796182737769
   233   3      10.399973116956907       2.078708643141387      16.276065976178749
   234   3      8.0907921651599199      2.0708043885839134      18.088606031947357
   235   3      10.266169615472522    0.067904933559672975      18.249293220711497
   236   4      8.1075716193167384    -0.36477388813967865      20.215231982595846
   237   2      10.209676234394257      1.9568108922361032      22.186551316774924
   238   3      10.015027474863441      2.0039820764310119      20.247116028080033
   239   3      8.1428610363931746      1.9870535406728127      22.542278271650609
   240   3      10.165648627242891    0.028068065707236346      22.440387200982205
   241   4      7.7525816284042461      4.1624532599172852      11.968080604764952
   242   2      10.044717197978022      6.0488600486639132      14.153664731643218
   243   3      10.215374857508724      6.1315404173490968      12.162753143424158
   244   3      8.1699271366887576      6.0058231958162152      14.294197597656614
   245   3      10.385837894321931      4.1162431571307421      14.166172600749396
   246   4      7.8153815699367248      4.2817401219177444      16.382977255831509
   247   1      10.111375734113514      6.0507774911303436      18.137212554920968
   248   3      10.380014100886209      6.0234879258454805      16.126650174423833
   249   3      8.0920539102177891      5.9917136580706369      18.241544203251063
   250   3      10.220367974150431      3.9896042984337976      18.284902708085021
   251   4      7.9472393887508375      4.3400928963089838      19.907445206625301
   252   2       9.969739654308766      5.9909211190479645      22.294390539954733
   253   3      10.094784217323626      6.1004807526316709      20.342720392934503
   254   3      8.0984613850314595      6.1253672449693983      22.456928803580329
   255   3      10.086991140355314      4.0650496680017847      22.330711918233334
   256   4      7.7924053398254776      8.0989824376859083      12.043049479854236
   257   2      10.079369104893429      10.148952533427588      14.068111199955199
   258   3      9.9716485582734666      10.184729036765034      12.191532012818524
   259   3      8.1442877927000197      10.087164139824198      14.420991404236121
   260   3       10.16092024725064      8.0943537145226792      14.304061949551592
   261   4      7.9279153062502825      8.2706282184553057      15.995017652131935
   262   1       10.10663733204844      10.151552109621422      18.243146707589339
   263   3      10.338260122917953      10.095077926562091      16.190722585133866
   264   3      8.0466415369145139      10.119023823057809      18.299497037944423
   265   3      10.224849868178282       8.087481807889036      18.269626919465825
   266   4      8.2123524813558433       7.974761317261855      19.683521215134348
   267   2      10.141415497896491      9.9565202345356152      22.247046872493151
   268   3       9.993612504083762      10.131426874646957      20.333955528495903
   269   3      8.1190011812198133      10.215726594016081       22.41335324430467
   270   3      10.204711983640943      8.0712762848083841      22.399484084803529
   271   4    -0.12837843607097882      12.327577486056867    -0.37974475010699371
   272   2      1.9664633621206566       14.13096482842136      1.9900090620060942
   273   3       2.254632381114213      14.208273837299892    0.078072586953679468
   274   3    0.079002601983515469      14.256261666794142      2.0495027367544916
   275   3      2.1515060555351919      12.211893027672154      2.0955326366129641
   276   4    -0.11779303250076774      11.918921816585613      4.1191390096835496
   277   2      2.0336110348066634      14.120313798040472      6.0868823244531782
   278   3      2.1049795479456423      14.360395424887766      4.0768274215012532
   279   3     0.12147972814462295      14.201570933531691      6.2327263380333298
   280   3      2.2183789590547223      12.227892566349205      6.0338700876324562
   281   4    -0.12325682473635756      11.946042220104932      7.9586640923677976
   282   1       2.036069038992558      14.111478424507478      10.086729203377132
   283   3      2.2570421143349981      14.255365309633824      8.0316844681561257
   284   3    0.026524275119177512      14.347749686230927      10.015211308704449
   285   3      2.2070336592889941      12.073255791504796      10.287677541880239
   286   4    -0.16578405086705686      16.046323817638772    -0.29473442581185172
   287   1      1.9906271434420122      18.222795232039676      1.9977423471776132
   288   3      2.2332621398143626      18.284294003446917   -0.028765251332839269
   289   3   -0.030697583118427692      18.225105501318403      2.2042853021707742
   290   3      2.2288711608676213       16.16938998335312      2.0276010761301699
   291   4   -0.077573184319966029      16.329699900909127      3.7200791466131373
   292   2      1.9642162560919352      18.180476026998239      6.0442509135575344
   293   3      2.0889283709208031      18.175027979600806      4.1262253825522333
   294   3    0.068964179421222321      18.436716597886655      6.2179415513594254
   295   3      2.0237461868148645      16.282546737429513      6.1947241751213316
   296   4    0.076235264214099624      15.895872011205819      8.1985997456224986
   297   2       2.088053732714537      18.166841932567873       10.20337184842686
   298   3      2.1154051970800234      18.521876472245836      8.1151960219189601
   299   3    0.060550822581656505      18.485612772718856      10.083866709651183
   300   3      2.0117348507153041      16.263747990380558      10.013460825295031
   301   4    -0.12599044498289824      20.520546418996947     -0.2623507242859846
   302   2      2.0545897268712086      22.216166488210344      1.8706229804203689
   303   3      2.0794105805891232      22.175567892009287   0.0076857575297192351
   304   3    0.053391349584299481      22.265931791552735      2.1086068805893072
   305   3      2.0268493123273452      20.296683882315985      2.2594932019014746
   306   4    -0.02984605451692238      20.185493256634825      3.6566174320975713
   307   2      2.0257272061283795      22.270590032499761      6.0745727992090792
   308   3      1.9164417461898506      22.456618605700584      4.1192697757718308
   309   3  -0.0059657786001539297       22.28155164120944      6.2682508039581837
   310   3      2.2341097931065081      20.269011571239481      5.9763482333210849
   311   4    0.088847496964676059      20.120261420177922      8.1601152937435781
   312   1      2.0151512483690719      22.290138193852812      10.108391079366447
   313   3      2.0765255131542331      22.023116334200772      8.0800132883253983
   314   3   -0.063546238868974383      22.314606510576027      10.229947169345037
   315   3      2.2626532238938517       20.26411967750288      10.241396944362688
   316   4      3.8423805592157634      11.952454251712538    -0.10492287833981259
   317   2      6.0269865903113864      14.090419325150624       2.101924520506445
   318   3      6.0472587283755175      14.176456004039684   0.0051801881429763778
   319   3      4.1396409541151957      14.243019903312621      2.1547618312056422
   320   3      6.2018751851602856      12.224083714110066      2.0765845682820494
   321   4      3.9515410505285247      11.711372602239436      4.2046535836164649
   322   2      6.0705571101639366      14.089649747897409      6.1122249516577654
   323   3      6.2597182507987474      14.416297164349517      4.0152845701830273
   324   3      4.1189677065963002      14.448136074000084      5.9494268406187754
   325   3      5.9906332944228904      12.218040865388103      5.9636087863310925
   326   4      4.0221086929181018      11.829540311286141       7.821521353935931
   327   1      6.0986634262061177      14.131227861483026       10.07137464963593
   328   3      5.9612092264425556      14.247569914179168      8.0322746096483879
   329   3      4.0651907725271021      14.285554249756336      10.290066820322194
   330   3        5.98839181268698       12.10220137553031      10.386225629647953
   331   4      3.7444057268745792      16.192275521772398    0.078195608572481909
   332   2      6.0618894114779955      18.198361525343739      2.1109642181987724
   333   3      5.9662796887643132      18.521253437801487   0.0041588188290376969
   334   3      4.1028031463316781      18.345920800632019      2.1077129560598222
   335   3      6.1147219369772836      16.226532005502751      1.8013519632970296
   336   4      3.7927416785230164      16.184520259235239      3.9435216290752155
   337   2      5.9589496073846284      18.294561395476943      6.2506143336266895
   338   3      6.2545208972894155      18.037128638188726      4.0243013649180943
   339   3      4.0698755336818895      18.149602946028573      6.0259545245502126
   340   3      6.3683792971161228      16.298952468601694       6.127766840590815
   341   4      4.1057971980602472      15.838108531783014       8.332690013604374
   342   1      6.0963946753826406      18.249660101350642      10.067673275529973
   343   3      6.0428356749435128         18.388186683392      8.0821706439377383
   344   3       4.045886607535861      18.227122347559149      10.309971618557636
   345   3      6.1009954237260065      16.208025196135036      10.226285490354041
   346   4      4.0980885220415999       19.94301911398513   -0.048502306212161714
   347   1      6.0257500590377386      22.245396306840838      1.9539995626160536
   348   3      6.0039916634891721      21.975138875786808   -0.069608095586525379
   349   3      3.9688995775365892      22.265554119521028      2.2663768338254671
   350   3      6.1901678617100151      20.201155086610822      2.1678320627799947
   351   4      3.9016414688134966      20.160476601121175      3.8601625366233634
   352   1      6.0005630977858182      22.193926534813844      6.1049106432396911
   353   3      6.1631334300844127      22.446995859578557      4.0324792338160274
   354   3      3.9971179176323872      22.483759535123227       6.035277260788372
   355   3      6.0208052216561301      20.183990556806663      5.7787094323793449
   356   4       3.739049555823208      20.336267952621355        8.20176662811987
   357   2      6.0270403632678899      22.256100743243522       10.02475679829573
   358   3      6.1118655178119541      22.108446486864409      8.1287682002764345
   359   3      4.0938842410251768      22.370865814096252      10.300816044232061