(written by ASE)

1080 atoms
4 atom types

0.0      24.299999999999997  xlo xhi
0.0      24.299999999999997  ylo yhi
0.0      24.299999999999997  zlo zhi

Atoms # atomic

     1   4     0.16704414029569886    0.085133729871832112    -0.38798433401106958
     2   2      2.1165313518493774      1.9754500914932374       2.027988277407756
     3   3      1.7913444795125961      2.0461343957886711    0.078131710306367827
     4   3   -0.071176316844910381      2.0156180625338944      2.2810998078710183
     5   3      1.9099423163770828  -0.0089618447328004697       2.054543013244543
     6   4   -0.019381896474469171    -0.20215572470698071      3.7096829824228355
     7   1      1.9978441670623146      1.9750444671336909      6.0202711800496473
     8   3      2.0337211257745791      2.1343522330213021      4.0042424808749137
     9   3    -0.04639071923778694      2.0639420213463069       6.177803071204182
    10   3      1.9191538021687686   -0.039437867077611863      6.3305248357931099
    11   4    0.061017655718556128    -0.05253376794967269      7.8225649389195002
    12   2      2.0406233227488819      1.8992742188024856      10.106262657057842
    13   3      1.8683804752899735      2.1859620246131843      8.2221420126964624
    14   3   -0.027522377819835495      2.1428126993586925      10.366983001092724
    15   3      1.9039246949189301    0.038084582209209454      10.142329607265172
    16   4     0.40858927595332206      4.1046298573671463   -0.052664996460315805
    17   1      2.0230988706649291       5.999991447660932      2.0201931531476207
    18   3       1.833650741422479      6.1444577345361173    0.010397483488647975
    19   3   -0.077463567214845597      6.1793317393473952      2.1930898727087254
    20   3      1.7599355608288116      3.9779045930399053      2.0071956908310886
    21   4     0.25229191832956149      3.8311524293895802      3.8503789596501119
    22   2      2.0544646723894715       6.035353298703491      5.9621081184759843
    23   3      2.0663737373264919      6.1158307854012826      4.0810699679228906
    24   3    0.035611715765576472      6.1436179005754514      6.0886036741353262
    25   3      1.9865767876489919      4.1023949539023947      6.1970613309609117
    26   4    0.091093225319468604      3.8864078674529665      7.7962289105411076
    27   2      2.0593435171880783      5.9800082921952615      10.125020502054948
    28   3      1.8581436647758023      6.0932427607995825      8.1931683884480595
    29   3   -0.039495705993001791      6.2234104235731307      10.270445814813325
    30   3      1.9413328920509518      4.1006510697427423      10.333312916980898
    31   4    0.084471136964867743      7.7208172030044482   -0.084359829636501169
    32   2      1.9499117752206667      10.008211715118657      2.0281560347518495
    33   3       2.092383425187629      10.257586289940289    0.041451729892050197
    34   3    0.011874427991270248      10.299507878756582      2.1404003874606112
    35   3      2.0047990362997417      8.1366567028243395      2.0631038523944412
    36   4    -0.10877014167410652      7.7298710904694676      4.0083215950790727
    37   1      1.9837186880310802      10.068744492336497      6.0457342310692157
    38   3      2.0393794603333895      10.284383896599204      4.0116711597141963
    39   3   -0.040759916995518015      10.393560387551711       6.110281017727023
    40   3      1.9866454859890279      8.0515046184504389      6.3116667015513173
    41   4   -0.012173303567082371      7.8183268410490889       7.852964465528637
    42   2      1.8684670935104806      10.142336728274898      10.083709496332627
    43   3      2.0203132758645301      10.291747981491234      8.1610883756018158
    44   3   -0.017618913003618803      10.292079596978825      10.210384276566298
    45   3      2.0208761752240223      8.1824444994951602       10.09637282762991
    46   4      4.1207661198066727   0.0086696395139219361     -0.3565014138103369
    47   2      6.2196851547631775      1.8866465879915302      2.0091601382543249
    48   3      6.0736877889401057       2.252161720090164     0.10222256427647965
    49   3      3.9997650603099006      2.1486035212440751      1.9442236311397751
    50   3      5.9632264565847812    0.025047380722125055        1.91767386630598
    51   4      4.3563741023651188    -0.31103826781252525      3.9917706797648105
    52   1      6.0573659847411827      2.0213652218607558      6.0276661404471259
    53   3      5.8335139988324789      1.9617104351323893      3.9914040285518357
    54   3      4.0006580863546661      2.0246869396447065      6.2673758933294073
    55   3       6.128822970210476  -0.0086810477519062897      6.2230434752815276
    56   4      4.1077150966285636     0.12364504537311412      7.6264852411541204
    57   1      6.0218104953931926      1.9782586105931659      10.161420911209992
    58   3      6.1760996192409658      2.1328243560400568      8.1330592573081759
    59   3      3.9507378191104787       2.130367181987352      10.163461204442861
    60   3      6.2397175436366075   -0.042479787195058523      10.068967947046193
    61   4      4.1910612328056036      3.8410210741674198    -0.25658261462985793
    62   2      6.0539960761021199      6.0350816486267744      1.9047613937984047
    63   3       6.224729487876222      6.0538880561893018     0.03245228771392019
    64   3      4.0808643741932951       6.180712730306773      1.9806190884615602
    65   3      6.0354126212482502      4.0955697381648699      2.2808974284567256
    66   4      4.2015236758324574      3.6479815730651164      4.1073991618669918
    67   2      6.1528026692994358      5.9661006904791503      6.0199645078106032
    68   3      5.7859816978670047      6.1861024882929909      4.1329124821674741
    69   3      4.0025473147408395      6.1748560937419033      6.3265418780281246
    70   3      5.8919088432977187      4.0716726410146711      6.0524036789936533
    71   4      4.0798707150308395       3.685292093055033      7.8596993804762443
    72   1      5.9865103331944045      6.1022160439120956      10.096162242895177
    73   3      6.2897293558520753       6.026630006519345      8.0743042490996544
    74   3      3.9595733317186719      6.1947875155954781      10.192783966007291
    75   3      6.1079106569237522      4.0732054008873053      10.340909659769972
    76   4      3.7531316029574588      7.6873345924672583    -0.10469743300954702
    77   1      6.0327105215679104      10.075883093421783      2.0041161820803932
    78   3      6.0351073294057311       10.36014969563116   -0.049564963135961274
    79   3      3.9759722066444869      10.277181003595025      2.0438896313517056
    80   3      6.0779038596201502      8.0350362970361466      2.1963601400877315
    81   4      4.1335210783383278      7.9123160704599185      3.7051507672885369
    82   2       5.988631499542084      10.025107866779193      6.0261557217434012
    83   3      5.9302155755628272      10.112214701549501      4.1326706199286249
    84   3      4.0556055991315834      10.105795989189376      6.2926277734282392
    85   3      6.0641517393754132      8.1157056596380812      6.3103898453232947
    86   4      3.8086821877497083      8.0662044032902287      7.8760975146431349
    87   2      6.0005979572926575      10.109197179133064      10.131299717145476
    88   3      6.1622354694732691      10.301062972597055      8.1307818160549381
    89   3      4.0696356094329218      10.050493969904563      10.136895769861999
    90   3      6.3334164289943971      8.1424127084224835      10.003922377984757
    91   4      8.0355121683357922    0.020890753482930673    -0.39237628991886225
    92   1      10.123809200496828      2.0100063808730568      2.0363202674030161
    93   3      10.150747674954996      2.1752767374444808   0.0069851966559686604
    94   3      8.0820512147795576      2.1181907420907384      2.1463566314017779
    95   3      10.359039740003908   -0.033434492275930414       1.949790908549984
    96   4      7.8370473861833059    -0.32000834703335629      4.4453573736522154
    97   2      9.9896815416877871      2.0281191905140856      6.0137313007791571
    98   3      10.371933936235591      1.9730833100489535      4.1110633561201642
    99   3      8.1207049816380632      2.0457826552848624      6.0169060248840749
   100   3      10.258750867873678    0.067733049385263422       6.138971101528047
   101   4      7.6294332452093956     0.20996403225510391      8.0069628210613413
   102   2      10.003768998303059      1.9427727678062676      10.134510936394467
   103   3      10.150815429054264      2.1574274108162292      8.1145137186139582
   104   3      8.1334655557378888      2.1508498566081888      10.260385216296793
   105   3      10.122119409019392     0.05098826638590185      10.040925963972452
   106   4      8.2402632454462026      3.7589164277569314    -0.23823371891550471
   107   2      10.281133067864785      6.0992533026745548      1.9336235696951811
   108   3      9.8341860000551709      5.9955542016932935    0.042626071813675968
   109   3      8.0287061778907489       6.045637960088392      2.3605965334816355
   110   3      10.080031502610527      4.0914165141731207      2.2403637277162409
   111   4       8.187185628748141      4.0957342692438159      3.7546270483485129
   112   1      10.039784075777984      6.0487877381630009      6.0338955296819625
   113   3      10.342234439847715       6.082731537955941      4.0110971649177154
   114   3      8.0179034350520677      6.0565634355722651       5.902464474819042
   115   3      10.344471399628745      3.9838799590386049      6.0189124514639012
   116   4      7.6263345301333887      3.9535354464709487      8.3011509978830027
   117   2      10.124314571178079      6.1264670908207997      10.000933945965949
   118   3      10.099970891820698       5.976778896421032      8.1151047391212821
   119   3      8.1890829186938738      6.0087616642361903      10.294925813865982
   120   3      10.288768985823829      4.0487342008939438      10.219501175079607
   121   4      8.4240720887294529      7.9573169531930921    -0.31453199317995995
   122   1      10.114874780349355      10.062753322678597       2.007141900886166
   123   3      10.084682420634641      10.279567990608678  -0.0073109842959036709
   124   3      8.0547078166797785      10.204180583280626       2.156897831607512
   125   3      9.9813838411834865      8.0383081908801053      2.0583995415229839
   126   4      8.0815844839400999      8.1619685901430756       3.616174451190644
   127   1      9.9825895607691635      10.071991122095502      6.0770733924571934
   128   3      10.153155999695199      10.149548092271329      4.0454475588228567
   129   3      7.9703582901432251      10.317277452467941      6.0861987198418435
   130   3      10.255998334963603      8.0615142379616902      6.0961561088087635
   131   4      7.8448126989324942      7.8741459456175074      8.1155551392385075
   132   1      10.114079234799151      10.091467428957591      10.169904622601775
   133   3       10.16953740539936      10.209649641290245      8.1319307715754157
   134   3      8.0905726538180165      10.351992320949165      10.110261909097197
   135   3      10.156870069416042      8.0510209034908637      10.182014054798829
   136   4     0.15003194007447057      -0.294109779485556      12.044306152601187
   137   2      2.1733929121664377      2.0351695852267295      14.201104722862347
   138   3      1.9872687955064885      2.0474287327476479      12.205805039826094
   139   3    -0.07541892786940195      2.0786203023100951      14.100808383605722
   140   3      2.0087096925803265    0.082341061551996039      14.324042929935205
   141   4     0.36321402744866521   -0.069390914424327835      16.243554382769318
   142   1      2.0530326597122901      2.0126495998325646      18.173174648907626
   143   3      1.8037129649528534      2.1673557980465992      16.152794056273642
   144   3   -0.046883257467070907      2.0109122361895886      18.383810480195685
   145   3       1.919091475295861   -0.022112012479743839      18.152606925578976
   146   4     0.28491348063079425   -0.023168620171053311      20.001845162468246
   147   2       2.017933374817972      2.0325453117915955      22.093025131600406
   148   3      2.1466993391215228      1.9548274495744657      20.231437897156514
   149   3    0.068435457353850065      1.8174575641502244      22.233843189451235
   150   3      2.1125133530445437     0.03631931266110474      22.483524724615606
   151   4     0.16478547735501503      3.8713342858177873      12.301376311389271
   152   1      1.9874310496393806      6.0469588012227478      14.140692070510955
   153   3      1.9688017399746311      6.3830130312689661      12.114242708651972
   154   3   -0.067718974744801777      6.2475119635135661      14.089340824333688
   155   3       1.769444346489466      4.0161474425346739      14.137342118623822
   156   4     0.23124024641605673      3.9293868411245718      16.097213509778243
   157   2      1.9893063881420538      6.1422946410539812      18.078733733391754
   158   3      1.8241369224094242      6.0040057911805347      16.196777367912603
   159   3    0.026216749906202045      6.1873593382487559      18.496687578384222
   160   3      1.8469485917335857      4.0907744218736868      18.377307545063875
   161   4   -0.010323614950897382      4.0273141293198274      19.872034639542193
   162   1      2.0093883346396497      6.0256644967899522      22.257544206897123
   163   3      2.2249067525743782      6.1613196111185635      20.245678266151881
   164   3   -0.071961159683580037      6.3494781256623565      22.225131498795527
   165   3      1.9611239737767705       3.978082753510408      22.378629276899048
   166   4   -0.044011137992629928      7.7924790534668835      12.179001274699861
   167   2      2.0158363348173061      10.175490189398069      14.118567879402896
   168   3       2.138671042999869      10.045835827463396      12.157173399366826
   169   3    0.037066332395251034      10.142168499845305      14.176795648060088
   170   3      2.0164062647278942      8.1684859327197614      14.345109439994554
   171   4   -0.014345258505195415      8.1358019641936146      15.801527221777093
   172   1      1.9624610681040404      10.125791876655994      18.236090636192873
   173   3      2.1227241780797885      10.175051996797455      16.171085167247274
   174   3   -0.044059843630422618      9.9202225578307548      18.265791637807872
   175   3      2.2457630607972456      8.0598742279578488      18.209405857881158
   176   4   -0.077442576344203873      7.8199720804014339      20.176926285196235
   177   2      1.8930837634311692      10.117776721235943      22.209963264695617
   178   3      2.1510905281636772      10.012707002219617      20.318032657342883
   179   3  -0.0012015503680554407      10.042247161301427       22.37712007771448
   180   3      2.2428485635674504       8.178529688330725      22.370771890909733
   181   4      4.1912614688916481    -0.30419588385455526       12.12776294866732
   182   2      6.2502783380996627      2.0013208877877635      14.146542261559308
   183   3      5.8812031315612412      1.9619257539106878      12.224466111421442
   184   3      4.0374867006628508      2.2098982586868368      14.313502057875173
   185   3      5.9929161577026919     0.11291125855520004       14.42620237962838
   186   4      4.3138137938909544    -0.34040378313814768      16.187377170542465
   187   2      5.9436163484878506      2.0154564910396449       18.35253311222894
   188   3      6.1108278186152214      2.4325017147716124      16.137470007128289
   189   3       4.073139560778178       2.310084762812104      18.061866699804014
   190   3      6.0233153666361821     0.12425209427839484      17.894178709702068
   191   4      4.2229749252082485     -0.3049312192021254      20.329475553924297
   192   1      6.0927245819658982      2.0114468450565215      22.222077541521834
   193   3      5.9636549591585526      1.8360434591559875      20.207959222263465
   194   3      3.9936892392211716      2.0365584885732186       22.55650751784087
   195   3      5.9997129464507042   -0.015443685846103027      22.556362071839551
   196   4      4.3063776983306976      3.8509869478196426      11.878160804711682
   197   2      5.8778481666282492      6.1270336085796897      14.142919181893761
   198   3      6.1245623505765119      6.3011623891463868      12.192065361317102
   199   3      4.0143435424937781      6.1370804723065371      14.204638728445659
   200   3      6.1213103328548684      4.1300629592412408      13.958584535892461
   201   4      4.1320369482751422      3.9955719304461423      16.283941104440778
   202   1      5.9996727716765301      6.0943122250585553      18.207094981328929
   203   3      6.2256020318713574      5.8981135633151007      16.135231085975128
   204   3      3.9800640128302618      5.7669597961161427      18.139005644737168
   205   3      6.3334418811718987      4.0066547583684171      18.285336622150687
   206   4      3.7661529491092041      4.2518399991042974      19.973330928208195
   207   2      6.0393237898800676      5.9543688470649379      22.137807303038404
   208   3      5.9046468374934431      6.1223858884811646      20.267612160263727
   209   3      4.0973499652683305      6.0221996733084273      22.531027414532755
   210   3      6.1152944958116633      4.0707398385506828      22.318944487590574
   211   4      3.7725529136272722      7.9702263759772425      12.055752750536387
   212   1      6.0477431030871429      10.111101896721765      14.136298361035397
   213   3      6.2522399128933914      9.9542892954359097      12.105968308534683
   214   3       4.026019068165188      10.123888724985997      14.329198646645912
   215   3      6.1581211935126374      8.0598968559407176      14.397600094472278
   216   4      3.7883998155736847      8.3052304367391852      16.013078410252419
   217   2      5.9301578673110544       10.03992789196908      18.290486190755253
   218   3      6.2018735096432307       10.24747851631939      16.297852120434431
   219   3       4.079068763588249      10.263186370080099       18.16971301702706
   220   3      6.0657937313537742      8.1515567592373674       18.09877226677159
   221   4      3.6990355678659488      8.0180331104240228      20.237301741619223
   222   2       6.060435551568669      10.001662338770611      22.350037530776252
   223   3      6.0511871406510211       10.14347375024969      20.253603608152265
   224   3      4.0752026371594248      10.393176608630492      22.312137958152984
   225   3      5.9188379534731421      8.1273087940877193      22.386662421566299
   226   4      7.9095546992987638    -0.27397009780911913      11.912049619225298
   227   1      10.080892280317562      2.0272585639061642       14.10648975898769
   228   3      10.440648052375764      2.0348498900465861      12.060350904923499
   229   3      8.0983098882890534      2.0204517848781753      14.069579378961844
   230   3      10.386227379653887   -0.069175822094775227      14.206000729604561
   231   4      7.8371846463160999    -0.32105153588769625      16.219878956230378
   232   2      9.9902520928592438      1.9793770364640859      18.099681880317249
   233   3       10.22686187143988      2.0931748457999002      16.218951383732488
   234   3      8.1046180758509205      1.9376188763977613       18.21280697825495
   235   3      10.359672147301362     0.05559153748817286      18.200034755411671
   236   4      8.1045520915024145    -0.35213563945912751       20.22559942352359
   237   2      10.161063733680754      2.0285002560540835      22.115912861991934
   238   3      10.219966068809383      1.9081709091982204      20.210650997257392
   239   3      8.1541459303219526      1.9186823919846974      22.429018166801232
   240   3      10.211983301267898    0.051269176690388024      22.471757976786627
   241   4      7.8286651298226166      4.1739431795380169      11.916280073559289
   242   2      10.019014053680687      6.0180761820424573      14.178675613785861
   243   3      10.338824880773007       6.087476147763498      12.202301082888777
   244   3      8.1498979233472895      6.1296483816596998      14.129188881693564
   245   3      10.327780166410049       4.104856624769825      14.113296345898711
   246   4      7.7972028742711741      4.1745159757212065       16.33202886807161
   247   1      10.079021163587669      6.0531643521619776      18.115095901359229
   248   3      10.234365093053958      6.1055506559892008      16.115009200688799
   249   3      8.0810833188951143      6.1121730521269049      18.410514390861238
   250   3      10.044055822633304      3.9790698394531061      18.410563165733642
   251   4      8.1206703915465237      4.2828000628842959      19.897935120400962
   252   1      10.094250563874043      6.0175156575169115      22.269953636414098
   253   3        10.1932215063597       6.164442086420852      20.241165438056907
   254   3      7.9948721806836955      6.3038806618094956      22.168249864823089
   255   3      10.014281354353859      3.9957545220189128      22.292140235797856
   256   4      7.7897020880979264      8.0539319228227768      11.981858735862019
   257   2       10.07417933406516      10.004988637881114      14.124920077327317
   258   3      10.134049625076905      10.242176741252786      12.255187089906473
   259   3      8.1950324050408536      10.121978177917471      14.344144090244701
   260   3      10.299937650439139      8.1145750240266548      14.197377031267987
   261   4      7.7010000870252764       8.032147514788905      16.208550670909034
   262   2      10.046106135773302        10.0968180592651       18.25076556661168
   263   3      10.279144055544696      10.257972106781647      16.222914529585694
   264   3      8.1559700499946324      10.138754267688659      18.202736314977951
   265   3      10.299471251281073      8.1874471998512366      18.216929408542697
   266   4      8.2601508177198255      7.7020032494127646      20.136524444238528
   267   1      10.062828036493215       10.10130248415456      22.220788305071597
   268   3       10.26063049011408      10.210058527846043      20.161834479915285
   269   3      8.0104950945123292      10.193726582696128       22.23896443332308
   270   3      10.169709751303673      8.0836597574961626      22.423175566112121
   271   4   -0.093200735228202963      12.307324341012443    -0.38537660227650944
   272   2      1.9192973685919656      14.190676913435647      1.9671415426180832
   273   3      2.1491877368239027      14.216308936806232    0.070657988881971598
   274   3    0.038259920082948415      14.282390327442195      2.1083970126580751
   275   3      2.1108947661098401      12.259702521800103      2.1551191307963014
   276   4    0.003150197251197525      11.855353409455892      4.0458220547281512
   277   2       2.023144184456525      14.111337201760833       6.072035213813459
   278   3      2.1356816625012294       14.35006651315698      4.1010466869261011
   279   3    0.084572990530449851      14.143675668319187      6.2344849054694587
   280   3      2.2184585023579109      12.216478748728115      6.0837576174907753
   281   4    -0.11472348834125418      11.970676209149596      7.8906365967485392
   282   1      1.9772000384749577      14.117145775080225      10.091230608578311
   283   3      2.2386889300146762      14.168849970910697      8.0513347567581697
   284   3   -0.046215046345297064      14.298199687709207      10.143155672762159
   285   3      2.2525618540350205      12.091781440163516      10.214137721225558
   286   4    -0.14643356888250644      16.018744208262795    -0.32668731041333587
   287   1      1.9939115208658591      18.212157746206493      2.0338420900994674
   288   3      2.2107301238385109      18.277180962552123  -0.0080860358224735026
   289   3   -0.034074104236660741      18.233323999944687      2.2128575035655036
   290   3      2.2559728226416622      16.177450949901029      2.0202248044769555
   291   4    -0.25164322759988256      16.439192695011091      3.9458989465708516
   292   2      1.9321384156622219      18.185530500992879      6.0398731388532774
   293   3      2.0920915395870998      18.120419075079372      4.1367006458123674
   294   3    0.046371893130496451      18.369891872080942      6.1687579346373314
   295   3      1.9759776665260396      16.258531560986132      6.2592269146440085
   296   4    -0.12948207687988317       16.01079168672889      8.0354544603859512
   297   2      2.0374389052806063      18.121249170526838      10.163669399146968
   298   3      2.0761666180305123      18.493835445011893      8.1232757693766402
   299   3    0.037832498054968924       18.47344449470388      10.104497092862347
   300   3      1.9655051300856972      16.228385195284755      10.027857419275252
   301   4   -0.099344239800595549      20.522601844843905    -0.25245978938212782
   302   2      2.0561883693022667      22.218595855834774      1.8881053116031512
   303   3      2.0279958594082346      22.166496528473076    0.024517784946592142
   304   3    0.038216839996905408      22.224420995023394      2.1561162339139246
   305   3      2.0043314846799603      20.291609253945197      2.2920576066188172
   306   4   -0.029288715082574697      20.281504723314097      3.7060660613889391
   307   2      2.0448383266447405      22.290907707764173       6.061376735337241
   308   3       1.918177982543352      22.399175129553026      4.1158282623157403
   309   3   -0.023499196263072803      22.274906617019433      6.1891023291762233
   310   3      2.1858461759819448      20.247679925819345      5.9977915545004148
   311   4   -0.092641867445028378      20.082935472166994      7.9623317750630935
   312   1      2.0033106484094843      22.289756316997632      10.092686666364393
   313   3      2.0318201623112433      22.050942368081163       8.068532066466986
   314   3   -0.039797221130813722      22.282090579092774      10.383968608396602
   315   3      2.2109832336631348      20.267321579895395      10.268503804152704
   316   4      3.9844676558522067      11.827540069655649    0.099747557424672367
   317   2      6.0134654068577893      14.086374317251158      2.1376980327730024
   318   3      6.0987531877136378      14.126734588437388    0.023056204371982636
   319   3       4.110675717301965      14.248769543501657      2.0896149793783438
   320   3      6.0827594589851373      12.229058845522356      2.1507291101544701
   321   4      3.8973969135509723      11.826033806832479      3.9350542292325628
   322   2      6.1020131996732836      14.059253884990603       6.152012833994621
   323   3       6.096778118838408       14.45567092882475      4.0468912736109779
   324   3      4.0942769640540355      14.460854962018395       6.059304648505222
   325   3      5.8855024057875234      12.190178280719477      6.0465598387895589
   326   4      3.7951061469634908      11.969959972123835      8.0186608427464154
   327   1       6.103705937762701      14.111341781251676      10.100017564676138
   328   3      6.0619475704179937      14.286929053228571      8.0648781307040505
   329   3      4.0661574198676931      14.296425309424489      10.250463933272645
   330   3       6.010345201242699      12.115713055051621      10.386564902201988
   331   4      3.7526957741934912      16.219992922088984     0.11100662036308004
   332   2      6.0619813303115189      18.191364185394985      2.1319864085247597
   333   3       5.997613038646513      18.541227948163886    0.029990434240731605
   334   3      4.1008730753339453      18.381825163945006      2.0912095060077509
   335   3      6.0856055526081123      16.243846966180506      1.7895279515359452
   336   4      3.8117764927199875      16.155100269708694      3.9813259418892497
   337   2      5.9349600295628235      18.290233195024776       6.240154008208032
   338   3      6.1893969836343619      18.038324737145022      4.0562342624980401
   339   3      4.0554484343776513      18.134805523451494      6.0915630368896867
   340   3      6.3121869903394856      16.277429529921111      6.1538214969335625
   341   4      3.9786212543652626      15.806610995246952      8.2565004846258052
   342   1       6.053130577988167      18.265395860998535      10.101910279801249
   343   3      6.1541572436543088      18.283414353356296      8.0923638372081292
   344   3      4.0158301905515383      18.207186204530565       10.26422017876949
   345   3      6.2087151246548862      16.208054486858522      10.152787204899319
   346   4      4.1015013671314344      19.939434303858061   -0.032837850403744512
   347   1      6.0323233057757806      22.262667339078973      1.9660692359214602
   348   3      6.0462396349001146      21.972410686020865   -0.048801325711554634
   349   3      3.9677711825141677      22.248869019524285      2.2547790427369505
   350   3      6.1977411876318325      20.211094286044805      2.2020010020559386
   351   4      3.9069071492484757      20.193821584548829      3.8328920343556767
   352   1      5.9919808970034483      22.200271924076215      6.1064776108310337
   353   3      6.1557040665412739      22.440845992259018      4.0414372032106334
   354   3      3.9912845676837612      22.447811461416677      6.0553718298154742
   355   3      6.0419135994825366      20.179339491483343       5.838833652666672
   356   4      3.6517777688207436      20.334315889578782      8.1973893649385641
   357   2      5.9894830124132143      22.248528552666603      10.022361234345112
   358   3      6.1316807239398656      22.125785672290071      8.1292433585792239
   359   3      4.0751641602501687      22.366595495431618       10.26585788542029