(written by ASE)

1080 atoms
4 atom types

0.0      24.299999999999997  xlo xhi
0.0      24.299999999999997  ylo yhi
0.0      24.299999999999997  zlo zhi

Atoms # atomic

     1   4     0.14943280194776903    0.083746906953088229    -0.39156931481764906
     2   2      2.0708136224932958      2.0631191329530547      2.0100066264216943
     3   3      1.7678384138001213      2.0097349671667932    0.060581779971282293
     4   3   -0.054633579106208377      1.9621372237157484      2.3065072266986846
     5   3      1.9070463777485356   -0.025483784623567686      2.0760676931549833
     6   4   -0.013206221083808405    -0.16374540372893348      3.7156511628782987
     7   1      2.0071815633480119       1.955707009840489      6.0396853258412602
     8   3      2.0493563580277772      2.0958783325831303      4.0190396451551171
     9   3   -0.015564616957584277      2.0969208856444261      6.1260898946956095
    10   3      1.9286873201191512   -0.047968869854588321       6.332922575490282
    11   4   -0.055537057417420217    0.052873979084137337      7.6897704770529574
    12   2      2.0316938140867045      1.9121296243936057      10.092378841598148
    13   3      1.9039622829375098      2.2164430932917263      8.2008263633500942
    14   3   -0.061621461288210652      2.1478126102512705      10.301445377639997
    15   3      1.8738453642623891    0.048242253310662439      10.135318290446111
    16   4     0.37651982294992714      4.1402146948174883    -0.10601902045343393
    17   1      1.9987354824164407      5.9831871355840001      2.0438897356824213
    18   3      1.8401537583134786      6.1558898724523026    0.012491316973527998
    19   3   -0.083260359897332381      6.2096661330575822      2.1745293838327675
    20   3      1.8265840407152958      3.9710920357126378      1.9661835638188692
    21   4    0.012993269867881768      3.5446735518262038      4.1938894588258835
    22   2      1.9478499415385346      6.0293892737649903      5.9759906861111762
    23   3      2.1101974546258448      6.2492464701972992      4.0985198476209126
    24   3    0.020380787928431444      6.1407716995718742       6.024702285710827
    25   3      2.0457147203441428       4.105706716457612      6.1017497997509178
    26   4   -0.037237959732668288      3.7761861313803591      7.7508880082860152
    27   2      2.0421985490270438      6.0090207482947422      10.064026253040817
    28   3      1.9048798675225613      5.9817182786033234      8.1531642031338514
    29   3   -0.072381356124986612      6.2049003876232494       10.25929224119915
    30   3      1.9089921204483333      4.0750813474734366      10.396642631736318
    31   4    0.083414236193446581      7.7358512283943925    -0.11848428129322509
    32   2      1.9419418596004772      10.033769827361613      2.0922268618190452
    33   3      2.1326808631504455      10.275596104484428    0.027580374219987585
    34   3   0.0076994915942943942        10.3125769980221      2.0172998341121824
    35   3      2.0039090111672206      8.1535145443467272      2.0170643511420927
    36   4    -0.10311533949226351       7.734999794346157      3.9912681496152449
    37   1      1.9750594072280421      10.100316180667429      6.0546288220510887
    38   3      2.0401532756359138      10.209973011821049      4.0188476116572556
    39   3   -0.056134003692901543      10.192026133908906      6.3400771171421342
    40   3      1.9733109113096945      8.0530029054955214      6.3659268170526389
    41   4     0.11884982958925117      8.1284185258358637      7.9075954369854768
    42   1      1.9440176004398317      10.096259855293646      10.140525031923277
    43   3      2.1856614891272401      10.217168115405562      8.1296093086001129
    44   3   -0.073473419206587454      10.160282194895862      9.9004761139477555
    45   3       2.092565001000787      8.0482903975671665      10.047086105137319
    46   4      4.0831473537695606    0.012636639527010583    -0.36531557742593057
    47   2      6.1705461917287465      1.8840593395214036      1.9992175296077219
    48   3       6.078210776150474      2.2637912741277137    0.090758114289782213
    49   3      3.9916156477548537      2.1223082095735113      1.9496338773588846
    50   3      5.9544239935864427    0.018061863943169096      1.9142111221080007
    51   4      4.3081119976553914     -0.3262859652381237      3.9293930649147981
    52   1      6.0928153904246649      2.0403395563686115      6.0291671551649388
    53   3      5.8500044845216168      1.9668078589812439      3.9924050122645927
    54   3        4.02077671514144      2.0513573057539651       6.242961898919976
    55   3      6.1402983139117921  -0.0018830984485682239      6.2349942364373945
    56   4      4.1617974030843259     0.12765282945385648      7.6252371110843038
    57   1      6.0177783229970592      1.9884151149237932      10.169816762463562
    58   3      6.1632168155973055      2.1260479702565482       8.133495856565645
    59   3      3.9404300834653707      2.1414672344920507      10.164357013955247
    60   3      6.2414313804840953   -0.039070915186325855      10.038971856155595
    61   4      4.1667278917588089      3.8523283168241704     -0.2653020698952045
    62   2      6.0567765377775578      6.0316148152012614       1.901121081063359
    63   3      6.2229753796380507      6.0409202668937043    0.029107631267652173
    64   3      4.0913969068615437      6.1835280013837908      2.0105433018814431
    65   3      6.0617727769999101      4.0981574584418734      2.2577534901173211
    66   4      4.0813226411748635      3.5593451138266579       4.168382880237802
    67   2      5.9252440302223777      5.9921928334323873      6.0643549142863593
    68   3      5.9157870905819161      6.2057097256491431      4.1526945208561639
    69   3      4.0284073705537109      6.1800138910282412      6.2782573677873241
    70   3       5.996376488193369      4.0968779237682122       6.080379721007958
    71   4      4.0206169690086284       3.662937085488752      7.8996744189377202
    72   1       5.988200378939192      6.0904403690810671       10.08995257913368
    73   3      6.3345802639059849      6.0426807328640706      8.0726305961521891
    74   3      3.9675563520953814      6.0278228240927092      10.275042715592921
    75   3      6.1116259514934788      4.0649917323276492      10.344093519576765
    76   4      3.7335767823588291      7.6986358391354592   -0.082638502686367271
    77   1       6.037146000073137      10.069808283007553      1.9809764068724871
    78   3      6.0172544902926832      10.363264623605961   -0.062299678457932078
    79   3       3.993316975749087      10.261986972726239      2.0627414017770476
    80   3      6.1013345670847201       8.032153506335364      2.1655845640140674
    81   4       4.073241355817645      7.8918439026492182      3.7063070524768049
    82   2      6.0357622013636822      9.9981920324257647      6.0047482187947905
    83   3      6.0473453581116807       10.13689397959577       4.111479157943438
    84   3      4.0957610159832969      10.105991262689527      6.1662999085043486
    85   3      6.1847681568313284      8.1078311627167974      6.2637511097639562
    86   4      3.6481021047117594      8.3135771408512902      8.0241689586239726
    87   2      6.0310213067517786      10.154691176504931      10.134377557326188
    88   3      6.1027871619099825      10.244159098908813      8.1360275329008438
    89   3      4.1027677836164935      10.059850447266374      10.315935006047301
    90   3      6.3010363424621607      8.1319876641541224      10.072682373425819
    91   4        7.99743154849092    0.006209362999963019    -0.39294995664485299
    92   1      10.081715890844256      2.0099383043854315      2.0179714311656403
    93   3      10.183891512439022      2.1291226681846438   0.0064646427549081174
    94   3      8.0518165095297913      2.1289349205648529      2.1319304269999133
    95   3      10.378632034577848   -0.033149492630242798      2.0139310717443895
    96   4      7.7832109342539626      -0.299126864011519      4.4383722269724446
    97   2      10.062574683721516      1.9738679784645987      6.0199846629863565
    98   3      10.321817220021405      2.0252204663168198      4.0948128534742843
    99   3      8.1552063779227044      2.0709168946160745      6.0403094281620113
   100   3      10.216160981056671    0.048826995505676013      6.0954669964824859
   101   4      7.6514283729034354     0.23136789012776143      8.0177678336581888
   102   2      9.9934307206954358      1.9600219644430672      10.140644851253244
   103   3       10.14086562950664      2.1735180096696447      8.1291551076297193
   104   3      8.1286133681651833      2.1284244582618457      10.257268542407614
   105   3      10.147268344536563    0.063988986951716592      10.043530077892683
   106   4      8.1625696949774742      3.7526517439119544    -0.27256503061702764
   107   2      10.262651150653571      6.0720736508947297      1.8984873763661723
   108   3      9.9201181924545061      6.0310115525705594    0.034165109084731818
   109   3      8.0673596200768003      6.0479659898592022      2.3437926107910654
   110   3      10.077917498216218      4.1080481084676128      2.2881881109221154
   111   4      8.0875950158927736      4.0003744648840875      3.7315685118099964
   112   2       9.956010547266958      6.0675187574652778      5.9865772366981753
   113   3       10.28625613400154      6.0859727583679328      4.1136286635795045
   114   3      8.0857746803016095      6.0881658101960685      5.9885695899362306
   115   3      10.237897304758523      4.0933304833585815      6.0795009810802076
   116   4       7.630187916738727      3.9308888563870732      8.2462439695617302
   117   2      10.160764175301429      6.1106339527973086      10.001508830954032
   118   3      10.087225799177993      6.0663727704548016      8.0965649311388752
   119   3      8.2122847451163494      6.0350147756489267      10.296065141639552
   120   3       10.27404460728336      4.0635236304444051      10.239784779731004
   121   4      8.3956075172632687      7.9884656650023649    -0.37515524528157357
   122   1      10.121033088171908       10.06116151992279      2.0013366891651994
   123   3       10.13881027038615      10.244755009068747  -0.0062157586815151039
   124   3      8.0761395928575883      10.188841808162215      2.1203892386915251
   125   3      10.065044706741526      8.0174266835268675      2.1732715402391691
   126   4      8.0326980601414721      8.1659836540501907      3.5721604131439149
   127   1      10.013765520075552      10.087856932456177      6.0812323668619594
   128   3      10.179754592334895      10.157040230229416      4.0578494323135521
   129   3      8.0092535010813357      10.331432328455941      6.1260876574844447
   130   3       10.26638609749639      8.0275822179932561      6.1088619106495017
   131   4      7.7819059216156505      7.9159591141838428      8.2182783781640367
   132   1      10.132264895161846      10.086400177379851      10.173943806320107
   133   3      10.226819620934695      10.190463985514731      8.1286107883827388
   134   3       8.113553992716751      10.308720012976758      10.088839472958755
   135   3      10.184388158317034      8.0445313724694962        10.2386046769451
   136   4       0.192445903612606    -0.27814567106315252      12.062006158774098
   137   2      2.1503003679697685      2.0292065294362396       14.18752986710739
   138   3      1.9166070843530505      1.9962158767487435      12.197457773931053
   139   3     -0.1047101120606026      2.0496992504714817      14.126160180335802
   140   3      1.9661492917241914    0.066952474973234935      14.316059817338285
   141   4     0.36255355347615964   -0.060202756555921541      16.265569732729634
   142   1      2.0363472808795144      2.0024487742809809        18.1723600163592
   143   3      1.7950950628017448      2.1704875891715458      16.144912746189881
   144   3   -0.066486379442040514      2.0158192313395347      18.378589173247974
   145   3      1.9114759130377885   -0.025755767121419512      18.114699719715883
   146   4     0.26848544613029635   -0.075578539864588082      20.023943315679549
   147   2      2.0091730279253963      2.0292703560980385      22.084391321245548
   148   3       2.151443325848863      1.9647637783409462      20.224179282491921
   149   3    0.061903259117452619      1.8196688191163293      22.201213344950183
   150   3      2.1234721356413289    0.042268496738610738      22.468104711668705
   151   4     0.21628242306524978      3.9157679950837747      12.211139518365739
   152   1      1.9858821214833589       6.031793553221898      14.136539365816605
   153   3      1.9032633458850694      6.3330325365534117      12.124157321019069
   154   3    -0.08923315317219313      6.3128434125197401      14.093732663688719
   155   3      1.7413392141930286      3.9970718206514548      14.106777558102877
   156   4     0.17243213165309912      3.8929582057579717      16.076466521468625
   157   2      1.9722241458763659      6.1033269797993439      18.071477413916583
   158   3      1.8490625169059511      5.9859356875921721      16.188049864998476
   159   3    0.017143951510567034        6.17394378505369      18.476527423983235
   160   3      1.8479171576652214      4.0871765447330493      18.400182477606734
   161   4   -0.050082751714459382      4.0094684324490801      19.870820479224346
   162   1      2.0307567444637966      6.0253186165814405      22.248388885122623
   163   3      2.1855315836000271      6.2022734961995534      20.236818757319533
   164   3   -0.043935410338194737      6.2720783797015827       22.22259397362097
   165   3      1.9625112536134754      3.9802839747901615      22.381219431527608
   166   4   0.0048950996621276192      7.7996007240116567      12.144653881837513
   167   2      1.9572213532747307      10.072624640978844       14.11610707191001
   168   3      2.0539106345543896      10.066158096194117      12.191854823715438
   169   3    0.031334895529074883      10.086631612997532      14.391869953700608
   170   3      2.1041809551967408      8.1463632445553014      14.325562599138733
   171   4    -0.20428728467896135      8.0230935454365309      15.886725939171642
   172   1      1.9785278228167109      10.128261938171866      18.216592278932868
   173   3      2.2644517443714722      10.166755608300081      16.180257032618929
   174   3    -0.06852484584682085      10.126327341637911      18.324166901344665
   175   3      2.2373030413493118       8.055483048879422      18.172466610016269
   176   4   -0.031647485444413412      7.8005438946194099      20.170795910511487
   177   2       1.897066590130275      10.120825928246312      22.248616029070615
   178   3      2.0206950988346937      9.9776580680872868      20.315656235531034
   179   3   0.0068975279407372022      10.120554250576767      22.400244291389896
   180   3      2.2135367813898861      8.1672237345823291      22.387303808667525
   181   4      4.1627852781795127    -0.29579804489457545      12.115444397083255
   182   2      6.2322548557185122      2.0046607107476762      14.109735232792097
   183   3       5.919986812775762      1.8880940982573999      12.216981890856495
   184   3      4.0160049486432703      2.1849870965678178      14.297799622929139
   185   3      5.9860630522027911     0.10810314101777842      14.460623940248963
   186   4      4.3011787535536623    -0.33103885450556503      16.208641798319555
   187   2      5.9415148410855636      2.0148413760129982      18.349579707827885
   188   3      6.0737688334418269      2.4157994245467793      16.154319237800383
   189   3      4.0652557054315626      2.3263170159632804      18.090272619344077
   190   3      6.0164860119115433     0.12197987601217906      17.893184250056869
   191   4      4.1613541594842385    -0.32340282722937269      20.305661935967851
   192   1      6.0710314699149412      2.0081093944555359      22.212123649489296
   193   3      5.9897568415634632      1.8444095368031133      20.204231909654123
   194   3       3.991129263624611      2.0507320936353928      22.547730526365335
   195   3      6.0027537178995081   -0.011904898036768152      22.572166774819866
   196   4      4.2580664128005132      3.9785331048888568      11.817771060380343
   197   2      5.8738265667056035      6.1595866648254614      14.151370105793349
   198   3      6.1733736254580522      6.2249810999605462      12.204907150687974
   199   3       4.019053437056038      6.0442951235719615      14.215436166015735
   200   3      6.1493709452519205       4.100352009191413      14.006020992079149
   201   4      4.1317008775609612      3.9644563237054289      16.238767106041813
   202   1      5.9855454918717967      6.0791810400799458      18.209289555073752
   203   3      6.2454204533164521      5.8893911907699357      16.143310158565754
   204   3      3.9715845929695055      5.7810972333025585      18.148800585935732
   205   3      6.3471643769434039       4.011648738805043      18.288357834142023
   206   4      3.7619791223035892      4.2170419946206721      19.948969596244112
   207   2      6.0372874736031106       5.965443058912367      22.126837098039026
   208   3      5.9464221433096691      6.1347664643220066      20.258477206372884
   209   3      4.1049066992238981      6.0203593672124009      22.512295077096599
   210   3      6.1391412158776664      4.0766499996997441      22.316109254053849
   211   4      3.6973169463843911       7.984100818304479      11.953559233610694
   212   1      6.0821950754657701      10.079082942623867      14.180550531357049
   213   3      6.3103688225411938      10.013749729225198      12.139538393266669
   214   3      4.0322866132237198      10.313453055533675      14.142937221868612
   215   3      6.1149985061859722      8.0531482125419824      14.395415053925579
   216   4      3.7469990228249634      8.2316825712675286      16.120216950241218
   217   2      5.9297026130628634      10.049669411747448      18.281470306729425
   218   3      6.0442299199659217      10.375622258766933      16.292669072401956
   219   3      4.0786143335087326      10.238366480421146      18.313878583629098
   220   3      6.0461894949349118      8.1604116405629163      18.031451230155938
   221   4      3.6669686783212718      8.0445758390852706      20.220234533930256
   222   2      6.0368550057973271      10.006487599376982      22.341506309659017
   223   3      6.2256040764468006       10.10541143298704      20.235506059601427
   224   3      4.0863964367524774      10.340310565369647      22.222231802557545
   225   3      5.9534477927797935       8.123301713092582      22.392177030125517
   226   4       7.887223008574173    -0.26003640276520157      11.909162618222021
   227   1      10.075655525169518       2.027024257302855      14.112954191973911
   228   3      10.438608562712629      2.0486778621930259      12.071999501814796
   229   3      8.0893691309609732      1.9992408657195928      14.124858766442145
   230   3      10.381128848003698   -0.064456448087638729      14.194307712448413
   231   4      7.8188678445439086    -0.30652045793126509       16.16949628648598
   232   2      9.9926515145004782      1.9847789270198679      18.100949973891481
   233   3      10.245679627074452      2.0626821839190699      16.219840890098524
   234   3      8.1087538953421792      1.9433800460310537      18.200077456717263
   235   3      10.354030423660612    0.055440782862114159      18.241071383394313
   236   4      8.0720267150164862    -0.35655058519194743      20.221731668603063
   237   2      10.141927772629231      2.0252769623356062      22.109132528458201
   238   3      10.211320859679731      1.9505000220131874      20.206356906597993
   239   3      8.1479045070910523      1.9262161603157131      22.439921191764807
   240   3      10.228835474992204    0.056100124901889953      22.435482663344867
   241   4      7.8086370106927498      4.2192171726071619      11.920545567616966
   242   2      10.024962225509327      6.0200954148683126      14.186242325161111
   243   3      10.360263278041851      6.0694915271097978      12.212994395026993
   244   3      8.1580515096295692      6.1295779352380633      14.135884314513243
   245   3      10.335864305303135      4.1068169089983719      14.151335632621315
   246   4      7.7640733737548571      4.0935441535567891       16.25674205469544
   247   1      10.102060181512572      6.0536844357806308      18.117995260255768
   248   3      10.206087960695879      6.1841278701465088      16.121568055130055
   249   3      8.0914213613743939      6.1945137127767609      18.356954442043747
   250   3      10.049630223868322      3.9869807943606608       18.37947266512343
   251   4      8.1202843952547195      4.3110075421887961      19.861122055004913
   252   1      10.098800838106843      6.0205601303772687      22.246576861215559
   253   3      10.190988120305539      6.1552273716273298      20.224305533963921
   254   3      8.0092074208054971      6.3046976094377367      22.190998049027183
   255   3      10.021912459845902      3.9977625367325538      22.332212564188755
   256   4      7.8004755525196998      8.0485051669676757      11.976908483139416
   257   2      10.082301433289354      10.009712574313173      14.143751492765551
   258   3      10.113919398846081      10.294374939431348      12.266389242688478
   259   3      8.2108835377287317      10.140137158058916      14.400910533428039
   260   3      10.322695761751586      8.1198078612764579      14.143403824254078
   261   4      7.7936382884393431      7.8365002822138203      16.358292132984822
   262   2       10.06577975168392      10.119870505598721      18.234919256519511
   263   3      10.384885195606737      10.207913583470642      16.211199758166984
   264   3      8.1693341694460706      10.107869464192687      18.055052772056698
   265   3      10.325501376256046      8.2003541619858744      18.224787866493411
   266   4      8.2981427881183265      7.7307706550349327      20.169588610144878
   267   1      10.074847531005643      10.108735859795793       22.20729700338045
   268   3      10.172757550750944      10.238976271202276      20.149922701950015
   269   3      8.0259818486860457      10.181604838730383      22.309462213200394
   270   3      10.164650658626922      8.0885573503402064      22.380504060419092
   271   4     -0.1754473033933637      12.065612485002921    -0.22726788814032989
   272   2      1.9237756481785575      14.177164996322379      1.9076779002116881
   273   3      2.1682642573921682      14.194627156109881    0.038077110574979513
   274   3    0.056141798489870998       14.14892780660279      2.1071987998360426
   275   3      2.1748126747280154      12.240156320475879      2.1334008132782181
   276   4    -0.23933574168866872      12.108240710543781      4.0193037756141203
   277   2      2.0263890484244826      14.106884932387212      5.9927572306291497
   278   3      2.1830008422750562      14.319996522617879      4.0927602482629339
   279   3     0.13723688158656658      14.169398758939096      6.1408314751003044
   280   3      2.2227718487273393      12.222021144576972      6.1125935203832737
   281   4   -0.078383437502595563      11.852614919466916       8.086041155235538
   282   2      2.0334216597661974      14.021270148114557      10.097346248309231
   283   3      2.1747917453070289      14.170880544535876      8.1435785747401823
   284   3     0.11697960775639772      14.195157083767192      10.183977510598023
   285   3      2.2048941457762181      12.161875394884349      10.244238860283412
   286   4    -0.18673354701719591      16.273465735644397    -0.24346802107547658
   287   1      1.9774647597129764      18.205244023254991      2.0358933688989578
   288   3      2.2007223277523456      18.242577979103608  -0.0067319967754605123
   289   3   -0.036414149349185937       18.24394368157061      2.2053241339061422
   290   3      2.2406323926021252      16.152687733706678      2.0160472785211163
   291   4    -0.30908948091112115      16.354734920193412      4.0424419043328106
   292   2      1.9242579621634037      18.167328806138045      6.0530855206858014
   293   3      2.1326518855091146      18.106629706311708      4.1451968126887841
   294   3    0.047778660223228089      18.313544741481913       6.144193642628542
   295   3      2.0393315412814745      16.233731215900338      6.2865322748542347
   296   4    -0.22922700403388127        15.9989151820301      8.0325172366697632
   297   2      2.0237576281872252      18.120507810596614      10.152948162294502
   298   3      2.1113681103193152      18.460228204059145      8.1304186345947453
   299   3    0.025278285582009379      18.466976154472395      10.105683986810279
   300   3      1.9654055052302974      16.222209810881385      10.055934802664542
   301   4    -0.18790584902647214      20.434250198085188    -0.29453482291041211
   302   2      2.0335219772349626      22.258315673180643          1.861442131982
   303   3      2.0092717833954836      22.180683329376141    0.010626055904774235
   304   3    0.035352401100353287      22.226965663103609      2.2011331061004924
   305   3      2.0049207439377974      20.296741137906753      2.2876357640205724
   306   4    0.019825028614801409      20.287661833304476      3.6991478734098804
   307   2      2.0477977423127669      22.314724636533459       6.069263591584944
   308   3      1.9673534245426729      22.356353439552947      4.1329184844689477
   309   3   -0.019326676231601888      22.240708639457981      6.1810346423758151
   310   3      2.1567415140210664      20.220978599051161      6.0248397077947935
   311   4   -0.065244913815620684       20.25501456719271      7.8320545530794314
   312   1       1.988778609584015      22.298373631425907      10.076074602743605
   313   3      1.9715084778561527      21.982395886647176      8.0751503460458718
   314   3   -0.070539810184466326      22.237651092491209      10.427637258467396
   315   3      2.1731487654408732      20.261479692990999      10.295788308721185
   316   4      3.9631152115335522      11.841227067349839     0.13693505034652501
   317   2      6.0049613641120665      14.080301913356005      2.1388773545903526
   318   3      6.1369186335093211      14.110989043116488     0.03204427337519955
   319   3       4.115155435279398      14.230740789766667      2.0634206415199468
   320   3      6.0963030777686553      12.221028483264694      2.1642271380877083
   321   4      3.9198970737158172       11.79998347344061      3.9412085631522631
   322   2      6.1069019148835189      14.037910349985166      6.1656865894432302
   323   3      6.0705050259982016      14.436949456382004      4.0591343469692784
   324   3      4.1010521531830015      14.429139752146011      6.1564716824486831
   325   3      5.9357510485257903      12.173557147152703      6.0581674620784014
   326   4      3.7852779235154137      11.833568773162479      7.9940438461158445
   327   1      6.0727908837920825      14.095457398584532      10.128135531500611
   328   3      6.0998699761961532      14.306674236606508      8.0777766024423734
   329   3      4.0244734471852368      14.428643739051168      10.163855246278969
   330   3      6.0422446288963334      12.106067731854864       10.38905312460429
   331   4      3.7377693282105144      16.208406436134982    0.033659825144497411
   332   2      6.0668306172001856      18.191542119771682      2.1313409237830561
   333   3       6.001175486830566      18.541056665661948    0.035530603473390716
   334   3      4.0994775590453045      18.365397098347501      2.1012946726030828
   335   3      6.1011315400611856      16.235612498577822      1.8151323900725933
   336   4      3.8059270059564967      16.223861124831078      3.9099299640253471
   337   2      5.9487330201314608       18.30124588218931      6.2266955538887991
   338   3      6.1893848064297599      18.035515275839355      4.0595024084246907
   339   3       4.072053991846726      18.135910354605979      6.1055753128767547
   340   3      6.3068716331282761      16.276073919574387      6.1619295877517208
   341   4      4.0571630114164217      15.908836331460952      8.1328649487966835
   342   1        6.07824250905675      18.278898327742073      10.090350436363229
   343   3      6.1692994473737652      18.283618808427534      8.0830351702296834
   344   3      4.0180887088461477      18.219645295220037      10.266653281686249
   345   3      6.2208904426656693      16.222624296825821      10.154328173957339
   346   4      4.0910887256391169      19.935384346001289   -0.017230714292604206
   347   1      6.0300886471634012      22.257068837696291      1.9654138342747107
   348   3      6.0847012746301408      21.973327681174261    -0.04736380003842252
   349   3      3.9612586659436051      22.241155163030722      2.2362347409661703
   350   3      6.1991679682537093      20.210831628069286      2.1997346927126871
   351   4       3.867419012341681      20.211494967378258      3.8206868324260461
   352   1      5.9956232977809556      22.203714136391731      6.1075520785709481
   353   3      6.1174820434197352      22.448303059690659      4.0467150634357365
   354   3      3.9927648865151029      22.416316830867483      6.1336619541193045
   355   3      6.0550511342394717       20.18757829718048       5.845409062898276
   356   4      3.6542451333198218      20.339101630387745      8.1620089089325862
   357   2      5.9855302878955516      22.253319787630456      10.028709511140109
   358   3      6.1710462900650196      22.125699351237586      8.1317450073173596
   359   3       4.066405665506367        22.3620001223867      10.223956462307946