(written by ASE)

1080 atoms
4 atom types

0.0      24.299999999999997  xlo xhi
0.0      24.299999999999997  ylo yhi
0.0      24.299999999999997  zlo zhi

Atoms # atomic

     1   4     0.15796309746881523     0.12282017576233534    -0.38533011544234608
     2   2      2.0610343183020925      2.0933641137769143      2.0021342724639091
     3   3      1.7727788853799211      1.9899434059119867    0.060586504418658559
     4   3   -0.050638912907835988      1.9508751949915411      2.3182754445034925
     5   3      1.9138804224958914   -0.024596746824343388      2.0838282455512251
     6   4   -0.033158016888559239    -0.13999233445080136      3.6994335292657472
     7   1        2.01535570690229       1.961878684699538      6.0439244230776978
     8   3      2.0505795644625198      2.1118058261346548      4.0266474651849586
     9   3  -0.0084955361124323392      2.0894527933367573      6.1431804401378072
    10   3      1.9307549881759345   -0.054906264463604776      6.3379238988555366
    11   4    -0.01758516586915668     0.11218977335547964      7.7354164685810085
    12   2      2.0318030470164343      1.9116680328070468      10.115290497324915
    13   3       1.880830914365837      2.1867307063493362      8.2167297252378866
    14   3   -0.067722737659927881      2.1245326438584606      10.334958239667852
    15   3       1.879170891042822    0.044874069355724203      10.147632195163458
    16   4      0.3434076011460534      4.1901918312683808    -0.17258136523195042
    17   1       1.986385280442367       5.990676826144103      2.0503087002971148
    18   3      1.8536190364795744      6.1782137781299857    0.015439170475428416
    19   3   -0.091219658452931257       6.212739007610895      2.1865082774437314
    20   3      1.8333462911889307      3.9816733218180831      1.9555847830065962
    21   4  -1.957889520279905e-05      3.5370750797989436      4.2184359887712439
    22   2      1.9684054650945799      6.0323196686287792      5.9841320268552769
    23   3      2.1092059433366566      6.2035892458486552      4.1121018612036764
    24   3    0.019395023089616714      6.1357033153406109      6.0641367713703493
    25   3      2.0373469603068437      4.1080339978866274      6.1515452627046994
    26   4   -0.020979407110617528      3.7837602239443888      7.7684231892862838
    27   2      2.0702996926791468      5.9880791389967181      10.117672083478807
    28   3      1.8343463489447636      6.0334277622181114      8.1812646584162003
    29   3   -0.079382731727723754      6.2259707029321234      10.275433554409494
    30   3      1.8784358775727794      4.0685063251839457      10.385778098761042
    31   4    0.057315625383043689      7.7492720414902863    -0.16984693694181277
    32   2      1.9228957272799212      10.016454478823993      2.0479069860870789
    33   3      2.1498733794576279      10.199378856924177     0.03123801164206674
    34   3  -0.0055140713691329141      10.269085104152255      2.0928830255760422
    35   3      2.0180339366117117      8.1430650466030219       2.075341078070287
    36   4     -0.1309423820566025      7.7362140010954592       4.011512673282378
    37   1      1.9679583469748969      10.072061601121508       6.060262586855159
    38   3      2.0232696181518626      10.269200865287004      4.0186311949889495
    39   3   -0.059253920242018678      10.367496406297329       6.151600999930916
    40   3      1.9605445175895535      8.0493165246635314      6.3542182159588014
    41   4    0.041257515125717105      7.8400773696147086      7.9815294968795127
    42   1      1.9516704087801942      10.091223738042325      10.147408238617041
    43   3       2.073379174204109      10.291014110894649      8.1267303430378899
    44   3   -0.073880841330743741      10.331844617301348       10.08304533672338
    45   3      2.0739542288181205      8.0618450292770625      10.063113190671077
    46   4      4.1024294181803693    0.030952446633499824    -0.36517014269057735
    47   2      6.1677278875926831      1.9026356120525239      1.9923528413293707
    48   3      6.0831980217400705      2.2349831405329623    0.087453210079496038
    49   3       3.985962019114226      2.1217607517927446      1.9652391420297242
    50   3      5.9354527758274971    0.026780105278508274      1.9389061450663692
    51   4      4.3180511301179667    -0.28133605470223028      3.8851183058601806
    52   1      6.0879727912596939      2.0375119348477324      6.0345789691770459
    53   3      5.8345611343511088      1.9582690964245231      4.0027762472307291
    54   3      4.0197592243858908      2.0498253306508656      6.2620664666336374
    55   3      6.1364199300434166  -0.0059085824464923907      6.2471572797315869
    56   4      4.1698234105065728     0.12309732378179487      7.6466306380001408
    57   1      6.0392514387210419      1.9905797388257511      10.169874930270449
    58   3      6.1767782801739592       2.130759740730344      8.1373072005844236
    59   3      3.9446829337266438      2.1472105069145457       10.15287065950284
    60   3       6.198666528374682   -0.037593226014279724      10.044750901626408
    61   4      4.1216774881147415      3.8916331763202212    -0.29667296514830843
    62   2      6.0475436203240029      6.0280487450046349         1.9035955617611
    63   3      6.2240654275462139      6.0376988517227668    0.033571261399504199
    64   3      4.0894931056616199      6.1720974061769791        2.02101640260712
    65   3      6.0619146567112034      4.0886528797000707       2.263003735085594
    66   4      4.0795903774151254      3.5570807794048966      4.1644260503462887
    67   2      5.9288991319901401      5.9888575638605426      6.0718379900065189
    68   3      5.9006121942225027      6.1921515722805012       4.162000067430462
    69   3      4.0254590083150541      6.1752473090826872      6.3196594387586078
    70   3      6.0021696187029159      4.0944388493326409       6.096674884706192
    71   4      4.0306983286112743      3.6555510058031166      7.9198861986498397
    72   1      5.9928865880395596      6.0908068820214671       10.08950093368148
    73   3      6.3535536372690116      6.0418583818733813      8.0737330014357838
    74   3      3.9734566185694553      6.0156257337635042      10.194754468279363
    75   3      6.1354293845644534      4.0625688293535553       10.36049891773524
    76   4      3.7100425126563255       7.688891987395575    -0.10014873691701486
    77   1      6.0321341402088651      10.063420579661782      1.9899439322765744
    78   3      6.0097273367895543      10.353368788776173   -0.061907225040847128
    79   3      3.9821017957336307      10.269289844280205      2.0709835133170507
    80   3      6.0912546478070526       8.026963385343068      2.1824869202384605
    81   4       4.073161623525638      7.8936823037520645      3.7047230274738485
    82   2      6.0288581130334649       9.994016815659986      6.0210284815120403
    83   3      5.9970552433337838      10.141553395451215      4.1229575680989052
    84   3      4.0822286511518806      10.124324074092437      6.2270775210369536
    85   3      6.1672681485349035      8.1051174986807784      6.2606698233345481
    86   4      3.5928338865735938      8.2769528385783957      8.0674334994659187
    87   2      6.0037164308293134       10.16998467501582      10.153324437329617
    88   3      6.1665932395290257      10.235422955928222      8.1260382309764356
    89   3      4.0876267045399999      10.077407618537158      10.184433015731692
    90   3      6.3086929310914597      8.1399518237515789      10.051987908000909
    91   4      7.9772720295394937     0.01328421884746577    -0.39763063877440952
    92   1      10.078207642644584       2.008795328088703      2.0228464544622433
    93   3      10.187519749029686      2.1143888482912678    0.011208119970738539
    94   3      8.0493850964313189      2.1189903121093345      2.1467606516263307
    95   3      10.383078987023447    -0.03396918031613852      2.0185632259484998
    96   4      7.7728096864544325    -0.29823255899653073      4.4301553366616906
    97   2      10.058073243274713      1.9698903407790904      6.0232677353752866
    98   3       10.32420473002032      2.0181728517307036      4.0974513668285777
    99   3      8.1519794364019891        2.06451574278754      6.0394957820129429
   100   3      10.211154482731686    0.045893285125725866      6.0960302715329542
   101   4      7.6506188301684555     0.22245836888649498      8.0208939668868204
   102   2      10.002364187431752      1.9504257560080522      10.136126103261912
   103   3      10.131771367887795      2.1797353721749935       8.126270239029779
   104   3      8.1376079329605133      2.1215347528839641      10.278117866454801
   105   3      10.156170255431924    0.058439053370441099      10.037685034731417
   106   4      8.1575852142224345      3.7595501398039457    -0.28344993602386637
   107   2      10.270217790324777      6.0690717993616854       1.908521612304902
   108   3      9.9140913288811969      6.0240155575536383    0.042657440220301421
   109   3      8.0595220535550318      6.0454208941147947      2.3533256144965211
   110   3      10.075756309332807      4.1037681122342864      2.2911433773262981
   111   4      8.0909937269059835      4.0044418479161852      3.7353168482093291
   112   2      9.9564557274050021      6.0686523006612481      5.9878205044810944
   113   3      10.284010476897114      6.0874118456220385       4.112473729787391
   114   3      8.0843909648615444      6.0874081246973004      5.9795830514043926
   115   3      10.237732455804382      4.0908415079650862      6.0694117245180452
   116   4      7.6451177716233429      3.9333752620192004      8.2298410059161746
   117   2      10.176225158783279      6.1132685750073303       9.998316727342921
   118   3      10.081817207127788      6.0568999406950672      8.0940580366865547
   119   3      8.2163622432345296      6.0584855952478138      10.316741060560231
   120   3      10.254593778002832      4.0686142294923728      10.249034657160289
   121   4      8.4046156299624108      7.9694959641506715    -0.35357843157830715
   122   1      10.122866695642223      10.056202735344073      2.0034961394495308
   123   3      10.129316016036212      10.244712167751342   -0.005648693366455999
   124   3      8.0689988067613339      10.182438439094268      2.1298187149307339
   125   3      10.054738797501866      8.0140151202834389      2.1606336225107299
   126   4      8.0372517806557777      8.1594575295615499      3.5752832679459781
   127   1      10.011304718420957      10.099225399549361      6.0804121516378622
   128   3      10.185236649848676      10.159720697526357      4.0531062030774256
   129   3      8.0046195283843424      10.341130997732812      6.0941066159386361
   130   3      10.265178699771869      8.0284373090500889      6.1071015828084825
   131   4      7.7791903120130668      7.9370137957532387      8.2192442020024874
   132   1      10.147218381729392      10.085562146988885      10.168316914156192
   133   3       10.22508488345526      10.193655758218389      8.1215750879172255
   134   3      8.1289456247689831      10.282943470148705        10.1129600479199
   135   3      10.187774919815311      8.0475215296893641      10.229507686382965
   136   4     0.19635221442491738     -0.2702817894381801      12.055986313309669
   137   2      2.1742779225833768      2.0356525129769842      14.204130563638914
   138   3      1.9429915063173002      1.9869771100149554      12.205362574133487
   139   3    -0.11024001752715556      2.0622785435300748      14.065897065768805
   140   3      1.9413259498954614    0.049378136657023432       14.31882675975617
   141   4     0.34660478888126278    -0.04390116824253517      16.232370228557365
   142   1      2.0431381886660085      2.0079770248727735      18.159853956929783
   143   3      1.7327253066823418      2.1240121252212263      16.137477624262711
   144   3   -0.071477750382514138      2.0030342839891149      18.397940805105307
   145   3      1.8880402422943385    -0.02838059076542206      18.122668796369915
   146   4     0.27869261564479181   -0.034915268542123207      20.002630652299196
   147   2      2.0143879761862569      2.0328991819289493      22.073789808916533
   148   3      2.1330892825733891      1.9616548279445929      20.214573059128252
   149   3    0.064644141162742474      1.8611277755284223      22.211838318712832
   150   3      2.1057875765329737    0.046538506762030293      22.453535051927684
   151   4     0.19451153603029697      3.9055854180066256      12.261877581831596
   152   1      1.9853812122103685      6.0462962844082755      14.162953540086004
   153   3      1.9449253823698522      6.3367107798744584      12.127974171226557
   154   3   -0.071845308311796571      6.1334147209956189      14.019966320871275
   155   3      1.7931359988888449      3.9854988359479422      14.117719070747368
   156   4      0.2481183955874689      3.9653077558149694      16.137531272380073
   157   2      1.9082149104752437       6.153792119186992      18.140528197912076
   158   3        1.97580729744095      5.9069504986292429      16.219659775735725
   159   3   0.0022637600895126261      6.1677682720320561      18.380157568792931
   160   3      1.8376624701232847      4.0749905424708137      18.355184718286193
   161   4   -0.038955472054012265      4.0250699581241784      19.855269416708115
   162   1      2.0031222935080035      6.0446650939151629      22.200772239384698
   163   3      2.2927124341416389      6.1084644348411228      20.193792499369998
   164   3   -0.058934893482782115      6.1418258650655142      22.331607479926319
   165   3      1.9925280674811805      3.9850880597849199      22.398082788319115
   166   4   -0.032205031323761422      7.8009337012263966      12.168719718318226
   167   2      1.8989559776997944      10.031102443084261      14.179639438668923
   168   3      2.1512531112383182      10.065855307272201      12.204847108231462
   169   3    0.018886224062951377      10.160759373784002      14.251983964393938
   170   3      2.1627502866987234      8.1345010289777484      14.281153360969029
   171   4    -0.48253707745526292      8.3422041558854634      16.365608482275682
   172   1      2.0159528039556456      10.134273035687226      18.229808521238649
   173   3       2.217802901743803      10.206579117298784      16.149144768877264
   174   3   0.0026609614798782169      9.9706231050025238      18.082018934543804
   175   3      2.2859368180643309       8.057648790336513      18.140347053322536
   176   4    -0.33139330668789296      8.4341354916893732      19.875088357230819
   177   2      1.8770645168866755      10.119270559555085      22.229869834153398
   178   3      2.0429767681086295      9.9545344937946574      20.305866989628495
   179   3   0.0092239041508550557       10.06813222040307      22.396076930528924
   180   3      2.2364750914655653      8.1498846210726761      22.354833460839004
   181   4      4.2776081350377817    -0.17658242038756383      12.104113277803441
   182   2       6.257073542441363      2.0231660704653076      14.140789757278782
   183   3      5.8559126484307384      1.8774898366739272      12.220709789411055
   184   3      4.0278146878379717      2.1184169660502676      14.301952478170959
   185   3      5.9933018221676928     0.10134017285047531      14.429373721299431
   186   4      4.3415042788383156    -0.28831636723963971      16.173723117716239
   187   2      5.9224312239543355      2.0212201269286458      18.313224002483793
   188   3      6.1691093177076182      2.3580614605533436      16.144238054884852
   189   3      4.0635318165635228      2.2946209532355932      18.071132466196147
   190   3      6.0353612364602354      0.1140068570656841      17.890635732076358
   191   4      4.1977689470757529    -0.29152166771383969      20.327056328801227
   192   1      6.0690487878166017      2.0199093319028751      22.193947356722067
   193   3      5.9874529245555088      1.8306391785611571      20.180768834165526
   194   3      3.9905332149820762      2.0505462741895926      22.538328245981134
   195   3      5.9961848449177779   0.0032060282130701155       22.54855416311408
   196   4      4.3222743989242636      3.9217180684423489      11.862517242013411
   197   2      5.9080451383663526      6.1623773072789749      14.120458611301897
   198   3      6.1531743840980804      6.2477628218271972      12.192986135556449
   199   3       4.043840742153245       6.032687743478621      14.269869711759661
   200   3      6.1491163054362818      4.0883802255899324      13.959135364666363
   201   4      4.0569973005411084      4.2206799867143854       16.27062586505501
   202   1      6.0101353947090503      6.0788497763906193      18.214345979187762
   203   3      6.2448259187247084      5.8595732914567487      16.137580228623062
   204   3      4.0117374089621851      5.7417687423858439      18.101397815564301
   205   3      6.3733841775580116      4.0004619319814925      18.275989364144564
   206   4      3.7993129654407869        4.23996924558642      19.923469247939003
   207   2      6.0445413151248877      5.9615053976850261      22.123702108760245
   208   3       5.946847837658165      6.1181042525353604       20.25598749158166
   209   3       4.107164074920731      6.0000652005816697      22.509515684920835
   210   3      6.1473196153334442      4.0720419011702962      22.323759183491777
   211   4      3.6604123116517457      8.0443384675430423      12.002965219030314
   212   1      6.1011598913669554      10.067407742315487      14.179884680211643
   213   3      6.2533045533495493       10.02353277414977      12.128768452316891
   214   3      4.0627557078255405      10.313650433675342      14.173520362677998
   215   3      6.1162053218143875      8.0449784176368908      14.434237835320394
   216   4      3.7814406467978614      8.1494682593039478      16.111355579471883
   217   2      5.9444499211948862      10.034013796702657      18.273805126014381
   218   3      6.0718279988429806      10.383081105014613      16.288175038800908
   219   3      4.0893498145741578      10.238741532464932      18.263704467877609
   220   3      6.0545260947771151      8.1515935572561684      18.009607759288333
   221   4      3.6597516005066235      8.0608707588583179      20.261661397704337
   222   2      6.0535922871718491      9.9884305629353847      22.340900685150146
   223   3       6.194395229153483      10.099699991999065      20.232833481955584
   224   3       4.094498043515407      10.333863875923097      22.216953718979759
   225   3      5.9512846322920119      8.1083909775013172      22.383965615991958
   226   4      7.9380690186039295    -0.28890792682116712      11.957325124493003
   227   1      10.090464505795675        2.02077885063186      14.105728767738034
   228   3      10.462345394759222      2.0435190974198969      12.062303168126132
   229   3      8.1068744392851126      1.9796806022346956      14.033213295639557
   230   3      10.395083569885923   -0.069554597458083206      14.180344839375925
   231   4      7.8351342996526467    -0.30656971266898581      16.165089690101908
   232   2      9.9949387055497088      1.9768843251741774      18.091676304387271
   233   3      10.227024211292871      2.0495404055450819      16.212743116628157
   234   3      8.1220324321074262      1.9304671681156405      18.232555150517502
   235   3      10.343842002637688    0.047463324580966082      18.269101105385673
   236   4      8.0489715811654001    -0.32470264629297652      20.208787681533565
   237   2      10.145728753153739      2.0194565425176352      22.112812616952297
   238   3      10.224294402745565      1.9576620907083961      20.212568907082055
   239   3      8.1489501787444585      1.9249492550220777      22.430592919669571
   240   3       10.23497648586878    0.053424231328525897      22.426704193247325
   241   4      7.8670282039657691      4.2012654999887209      11.897472065856961
   242   2       10.03955352949164      6.0124374285640583      14.172982199528342
   243   3      10.353465219364406      6.0734385030097826      12.203737428379013
   244   3      8.1610401567166306      6.1206655093406104      14.129505831888475
   245   3      10.341733457578897      4.0995638766914801      14.139687829605156
   246   4       7.789517239252735      4.1150392472736037      16.287508165581155
   247   1      10.112326036394387      6.0473419784794711      18.108886933028089
   248   3      10.209480133092166      6.1706635535390211      16.113218447134457
   249   3       8.101985445412982      6.1761840867601716      18.346242722863121
   250   3        10.0549510344374        3.97891531624383      18.377922250491928
   251   4      8.1346827913040141      4.2838875188526568      19.864797177491624
   252   1      10.103581149233239      6.0125982322738869      22.253903886818996
   253   3      10.189177661219526      6.1443087155672771      20.229418042933059
   254   3       8.013050990275536      6.2908423437686931      22.198265798675031
   255   3      10.020756840295196      3.9933769905397822      22.347216247726578
   256   4      7.8480368475282143      8.0411005293571964      11.901680565673896
   257   2      10.087578700089519      10.008333962088928      14.135439202865355
   258   3       10.12374850335296      10.306625508145139      12.261995653106601
   259   3      8.2083767217803896      10.161042675033842      14.377081785883558
   260   3      10.299184443158829      8.1247955664255347      14.147191419130168
   261   4      7.8177921260357692      7.8233180604568915      16.343015354837753
   262   2      10.061565159065301      10.099350568577306      18.234042842663783
   263   3      10.342436521842622      10.237146444712026      16.217863713236898
   264   3      8.1596239069036614      10.116391254414753       18.07758972323084
   265   3      10.301689587501471      8.1902862394067366      18.237665575207153
   266   4      8.3318109056143239      7.7125379808276371      20.172170251961525
   267   1      10.069521606454751       10.10042612135563      22.209024270581192
   268   3      10.175606231142231       10.23560775189295      20.156237293419409
   269   3      8.0217912494948376      10.179504647959629      22.298647514840088
   270   3      10.155949705258687      8.0806027168020194      22.392418376800503
   271   4    -0.23353053658225453      12.255404336442933    -0.37790641138885189
   272   2      1.9504571815150271      14.159167682480218      1.9121499789608356
   273   3        2.14227297731026      14.235062307746645    0.039417216600507059
   274   3    0.075796812247077502      14.282070248861441      2.1599457824392245
   275   3      2.1224432393503956      12.241235968566761      2.1153401512473891
   276   4   -0.094851434055039069      11.873317166400252      4.1129107169965771
   277   2      2.0294230273561622      14.131205056355558       5.989649676178785
   278   3      2.1966733731103867      14.336523700086774       4.097294157006873
   279   3     0.12424031576941683      14.240341537350544      6.1088071823890369
   280   3      2.2060549640479894      12.249835319182603      6.1156716082438702
   281   4    0.068975711101036272      11.769028234295455      8.0844462494262732
   282   2      2.0531842379521756      14.036637366458564      10.114920585926999
   283   3       2.107797942394857      14.192310355845704      8.1666107052597852
   284   3     0.10943404414405816      14.193297576763518      10.300129897873001
   285   3      2.1558114908787078      12.178317510828661      10.306476425023957
   286   4    -0.17871944043914384       16.00062620374095    -0.28392080111840279
   287   1      1.9755941819422449      18.224746994916291      2.0140364462060596
   288   3      2.2343719529687016       18.26975683315419   -0.014808668834512271
   289   3   -0.030618368875096211      18.228173336690734      2.2413208574564072
   290   3      2.2505792567146838      16.170466528027781      2.0428662227578913
   291   4    -0.16521539598975771      16.289768828215177      3.7944092972324945
   292   2      1.9440964144540791      18.187124041883102      6.0531430679160882
   293   3      2.1369073106128251      18.113128366513848      4.1559023053929769
   294   3    0.050913389099011115      18.349261050859358      6.1776411284010591
   295   3      2.0486934332517706      16.257791231723594      6.3124054610303766
   296   4    -0.16018682719445268      15.959122913505984      8.0589197330750189
   297   2      2.0750004940829299      18.162411082710889      10.133395959507713
   298   3      2.1183395582660856      18.475949378349036      8.1492416529206437
   299   3    0.026406785505011562      18.457654327002281      10.150951278396578
   300   3      1.9278244966390421      16.241767737638455      10.085205479061738
   301   4   -0.097779263503225008       20.49497080145002    -0.24043198092605592
   302   2       2.043713895310947      22.279446319340892       1.855874939145596
   303   3      1.9775055969226896      22.184456825741957  -0.0007471518906566096
   304   3    0.052597170464146789      22.236715661543283      2.2056972082109998
   305   3      2.0201594061516053      20.306719931765954      2.2662720719737957
   306   4   -0.010426503367869393      20.245573279681803      3.6535136302908819
   307   2      2.0224475053673863      22.328214403718704      6.0410643697638884
   308   3      2.0530246211016263      22.353255329253798      4.1333828629784035
   309   3   0.0093532073075662039      22.144960612897485      6.1846140658172502
   310   3      2.2014226858273158      20.220573008027234      6.0614111024515447
   311   4     0.11988679212001591      20.381902681017909      8.0113246298254648
   312   1      2.0196704246257324      22.301545309732539      10.108251863793452
   313   3      1.9463537934458282      21.966627947787547      8.1060554092390102
   314   3   -0.062494936335687298      22.228276706085751      10.399635859263435
   315   3       2.139084767121338      20.261506098856316      10.344537255993995
   316   4      3.9846543040882052      11.799483244537152     0.12078096073919271
   317   2      6.0000477099429306      14.072980407566625      2.1411682091925011
   318   3      6.0946313734825317      14.102533663924385    0.023614928754313029
   319   3      4.1006354699534233      14.225709872481714      2.0597742374793238
   320   3      6.0800288520413321      12.214884499891507      2.1472129954023815
   321   4       3.927101409050394      11.775994115807816      3.9471631694550715
   322   2      6.1091715676222593      14.038302203013872      6.1655346497239591
   323   3      6.0569429221079378      14.415166329767922      4.0589050784347132
   324   3      4.0857096975819198      14.430559178770812      6.1881144811248578
   325   3      5.9191922360360802      12.175774072080545      6.0680734126245968
   326   4      3.7918958687843189      11.818885093814798      7.9982339048344864
   327   1      6.0713198358055038      14.103775235466319      10.131319691398646
   328   3       6.092610444398276      14.318615501910449      8.0756098192518841
   329   3      4.0145164730798992      14.446096996097433      10.155075480058505
   330   3      6.1049811563599325      12.110329978482509      10.315853941485051
   331   4      3.7603823540344954      16.244524313308549    0.064330806355155853
   332   2      6.0661658168933359      18.195382858602809      2.1276762576812818
   333   3      5.9890489757572718      18.536710221485002    0.036652318165516555
   334   3      4.0975238976677675      18.354080437033929      2.1096746477048831
   335   3      6.0811056314826208      16.233151412327846      1.8181425140286336
   336   4      3.8268941970004429       16.25212775828733      3.8874841005019194
   337   2      5.9556547104407329       18.29690543025588       6.223223598923445
   338   3      6.1873167158680014      18.051120745071856      4.0590097794704203
   339   3      4.0722789749810717      18.130745284416736      6.1206670799972454
   340   3      6.3001048196531997      16.270510044162148      6.1497197156867855
   341   4        4.07857643123456      15.928886410727909      8.1245762040139198
   342   1      6.0903760154764273      18.278518377995031      10.091459796091389
   343   3      6.1739292901447467      18.266572813843243      8.0814037835708561
   344   3      4.0341659673786348      18.221648728524347      10.282905280346569
   345   3      6.2220035278041985      16.223886714316226      10.146850316246379
   346   4      4.0848303503086134      19.945448839196729   -0.054202276547977629
   347   1      6.0332079686813573      22.262183736041472      1.9636307718393391
   348   3      6.1095295901699878      22.012352779132716   -0.050248506011870919
   349   3      3.9737183860445819      22.249618357378154      2.1970546102585748
   350   3      6.1943550398880953      20.215818560776771      2.1937565580827569
   351   4      3.8830487480763378      20.246351611194005      3.7840754599461461
   352   1      5.9932989420486091      22.213726360385103      6.1105906616460164
   353   3      6.0892954936835793      22.448986751920867      4.0555462480704101
   354   3      3.9844098767549414      22.364154008554692      6.2711474656286237
   355   3      6.0426743255961508      20.191189882114216      5.8682945932214405
   356   4      3.7518338716616806       20.45443136467782      8.0510829743539691
   357   2      6.0112679438196945      22.252199040848378       10.04344419381126
   358   3      6.2098531467890119      22.124014523818506      8.1391476110663543
   359   3      4.0826206598212709      22.293469450834646      10.185518139105037