(written by ASE)

1080 atoms
4 atom types

0.0      24.299999999999997  xlo xhi
0.0      24.299999999999997  ylo yhi
0.0      24.299999999999997  zlo zhi

Atoms # atomic

     1   4    0.063029476759706979    0.047177281424034788    -0.42375592549818514
     2   2      1.9070875206378934       2.066631833367838      1.9421822579910384
     3   3      1.9664998130973446       2.097494301469248    0.066119331643525042
     4   3   0.0073261408141883956      2.1236394688689066      2.2055997685987139
     5   3      1.9172152530417459    0.027234162540820315      2.0032153796368051
     6   4    0.088086095940422479    -0.34364704292776477      3.8209395550929024
     7   2       2.044442584260842       1.967229573546605      5.9685439130361875
     8   3      2.0960554635792588      1.9312045208258333      4.0946978357848183
     9   3    0.056731487454658086      2.2190877057665572      6.1081865250725897
    10   3      1.9544731790823622    0.073204291355128875      6.3297818646449038
    11   4     0.23404385882920195    -0.37841864984845708      7.9558421909268962
    12   2      2.0241451595539695      1.9299385627023364      10.085245314893747
    13   3      1.8724052607767072      2.2326905414508169      8.1851484022689682
    14   3   -0.044216925629516783      2.1987156704535047      10.277445656028618
    15   3      1.8832802423597681    0.056251567304747604      10.105982307429196
    16   4    -0.13125565154800101      3.9100280535980012    -0.41931364517027708
    17   1      1.9269544261898091      6.0028479824765872      2.0582689100046769
    18   3      2.0894282442279923      6.1323003705628318    0.019227399410716606
    19   3   -0.089858355718917357       6.173342939393029      2.0282394770140271
    20   3        2.18872963443921      3.9773643719403653      2.1814071361583371
    21   4    -0.35309029451608248      3.7912592201790378      4.2830214176982793
    22   2      1.9375083045878307      6.0223694541277633      6.0041285642681483
    23   3       2.224355851424999      6.1425397566462738      4.1243976307389216
    24   3    0.031037323164035471      6.0535679520219396      6.0289971756671807
    25   3      2.1107784056368102      4.0586968088960456      6.0616186177041307
    26   4    -0.15144777713578411      3.8171297159275279      7.8777098731694899
    27   2      2.0712856365649484      6.0176591737611327      10.045519852768626
    28   3      1.9703792021730788      5.9384906746562756      8.1354561268701104
    29   3   -0.038575093999224166      6.1217955342553605      10.332789053715175
    30   3      1.9405778342579614      4.0857436563804255      10.385569440737827
    31   4    0.076961578865491057      7.6528153375904404    -0.04148933101968677
    32   2      1.9545479888994974      9.9895373685752507      2.0580724248460598
    33   3       2.200157612956144       10.19585468586663     0.02458240478035336
    34   3    0.034261987858498849      10.269723860169018      1.9030720448243714
    35   3      2.1083742682521112      8.1140267983415733      2.0404335196362839
    36   4    -0.40256411583258001      8.0170259376046822      4.2311260220113045
    37   1       2.031287359893422      10.075359014891259      6.0426949378365133
    38   3      2.0029145676066369      10.229935214174699      4.0005749686963519
    39   3    0.010580496741988821       10.24880267568947      6.1749826270357184
    40   3      1.9728623110203538      8.0197543949879044      6.3112028230830832
    41   4   -0.089573694751541533      8.2107836948832595      7.7121954021235704
    42   1       1.994588861340475      10.071319947171846      10.144649460585335
    43   3      2.1114590184738908      10.249192473608645      8.1164796094676621
    44   3   -0.062475302407897032      10.371666503620464       10.15228822215062
    45   3      2.0372310210780431      8.0402239205928403      10.049814153329274
    46   4      3.9862139532040088     0.04825170885361986    -0.39926219144309066
    47   2      5.9272673060701049      1.9445436109679737      1.9473094977778584
    48   3      6.1427328045837433      2.2034308458328926    0.072145642895836623
    49   3      4.0355328025610735       1.997511004366924      2.1094020340912563
    50   3      6.2069463113609524    0.060622021166948675      1.9376420422973064
    51   4      4.0766136541526707    -0.50531229087508867      4.0871084528853734
    52   1      6.0259868937390708      2.0214597333670952       6.022792317461934
    53   3      6.2839874810652896      1.9604653700541643      4.0031962177390694
    54   3       3.979094175656801      2.0086412696268963       6.357554168999437
    55   3      6.1376765336245933   0.0080748424371720768      6.2647459077422694
    56   4      4.1528569135870246    -0.11007363569969261      7.6933508353659041
    57   1      6.0642809557619008      1.9866510742885926      10.164647353185744
    58   3       6.148930495205474      2.1982718237795389      8.1400134688032448
    59   3      3.9453655892993509      2.1578954362386811      10.122369399862821
    60   3       6.123489005801277    -0.04778140287137618      10.061242325538945
    61   4      3.7108638741661446      4.2880302549906926    -0.25286164182506504
    62   2      6.1419780935761281      6.0866371366505181      1.9227484341372774
    63   3      6.1216205077612766      5.9639316471568229     0.05245475105538594
    64   3      4.1422207970619862      6.0584044574379012       2.162197941228539
    65   3       6.073229891562729      4.0608297344833533      2.2970885484700707
    66   4       3.930481189399424      4.1438301886781153      3.7440790481554287
    67   2      5.9419562006829825       5.981576192273077      6.1044417110057285
    68   3      6.0158327115581551      6.1809280408909197      4.1693582525653419
    69   3      4.0614011497586686      6.1593963094301643      6.2596984980865482
    70   3      6.1262671692984254      4.0784278417625268      6.0560243762181667
    71   4      4.2379199007802875      3.6564592871708759      8.0986446785571449
    72   1      6.0421274040090802      6.0544413320700654      10.089345853032709
    73   3      6.3451551263611083       5.990151714678654       8.073173694139042
    74   3      4.0011243128448353      6.0993996315937267      10.224851198279705
    75   3      6.0727905944850153      4.0612710006959345      10.430082230087681
    76   4      3.7526175829421016      7.7708712298905249    -0.14048974736622444
    77   1      6.0422750496881719      10.064007923791952      2.0072426779745847
    78   3      5.9506288890087591      10.330671159134683   -0.030876647380510984
    79   3      4.0004273532173347      10.263977192691131      2.0987797132536916
    80   3      6.1112643092120091      8.0227222017018374      2.1369032157730796
    81   4      4.0231773654793317      7.8793556206833557      3.7416749215628498
    82   2      6.0450829105304464      9.9705176342031621      6.0539427630882754
    83   3      6.0656870665259017      10.104610127948582      4.1358092046513528
    84   3      4.0972702589884076      10.104037094803051      6.1696896524739637
    85   3      6.2048729032359411       8.093588630588723      6.2995064932621014
    86   4      3.5925288587625031      8.2693133002219366      8.0669742880067883
    87   2      6.0782277192008918      10.050806742716926      10.160667354455676
    88   3      6.1231681065019457      10.365368779901294      8.1055186991477939
    89   3      4.1011666721597404      10.162800994674081      10.095414399055528
    90   3      6.2635265117406949      8.1279294819759915      9.9782506408742844
    91   4      7.8306668127482979    0.020886981620299932    -0.28707964255519197
    92   2      10.041050971147952      2.0337074586211843      1.9126124641497178
    93   3      10.305098367579379       1.970953590644585    0.036142677491979171
    94   3      8.1537110777604518      2.1442096494462746      2.0179240800000824
    95   3      10.212601959956896    0.063343914511593644      2.1842514123972609
    96   4      7.6208160745561937   -0.088520205770771909      4.0982202343672496
    97   2      10.146318771776997      1.9559896580736742      5.9631265079519071
    98   3      10.104982580150329      2.1520139947910888      4.0861661264007694
    99   3      8.2022288105469237       2.078319388595252      6.2458508965787356
   100   3      10.195687815356564    0.027978542982708896      6.0841712238823673
   101   4      7.6896796680173489     0.21802737119828045      7.9174943473761301
   102   2      10.004728412899267      1.8994899614668568      10.151698423424588
   103   3      10.228801954698699      2.0765775656088303      8.1829212628759223
   104   3      8.1332396816205215      2.1429433556592734      10.240267958756418
   105   3      10.157992557432719    0.028548508101594438      10.146473188597932
   106   4      7.8631980189791664      4.0351572290060886    -0.44573106355052317
   107   2      10.237914675516036      6.0823330229135788      1.9106840111536472
   108   3      10.056765399360444      6.1264496117989724    0.039050535961150719
   109   3      8.1168175135506093      6.0185682917359316       2.246929129563779
   110   3      10.216241594260291      4.0150268734225785      2.0715150035213199
   111   4      7.8192463133537791      3.8363739583813472      3.9485590087901263
   112   2      9.9932310123302717      6.0108609374074931      5.9712179015246303
   113   3      10.244185671321866      5.9323311716779425      4.1108105324154138
   114   3      8.1207929482993908      6.1209487312858819      6.0638593529548555
   115   3      10.179345141895864      4.0745007908610447      6.3028599416848277
   116   4      7.8090202643873017       3.824210216970406      8.0425751775742071
   117   2      10.248648376730586      6.0222263897826345       10.04577432420113
   118   3      10.055497586174061      6.1806268113551415      8.1448150116425371
   119   3      8.1844242333341963       6.082274575217288      10.369635367021603
   120   3      10.225968073544886      4.0727254377672262      10.198641539632941
   121   4       8.343425864928669      7.9295158781032837    -0.46053340985739644
   122   1      10.146872353444886       10.06393230283733      2.0286373109926439
   123   3      10.215332403970194      10.182016844589572    0.012886207082293958
   124   3      8.0888807068860515      10.168270843877332       2.114436369272779
   125   3      10.108470245159422      8.0031497486493297      2.2320449446827246
   126   4      8.0771004021383153      8.2172001994550659       3.613546178992757
   127   1      10.025825897332014      10.068689429201067      6.0876591994581126
   128   3      10.161892571042628      10.151095931557428      4.0694662810203077
   129   3      8.0222324126218059      10.338724122118336      6.1038396429655526
   130   3      10.265814803202302      8.0009920548618751       6.074179116764288
   131   4      7.9244996219288026      7.7833250493968507      8.1709943699400043
   132   1      10.103969698432097      10.087322767954015      10.166377907544089
   133   3      10.206317216664218      10.167364766937572      8.1288155298066851
   134   3      8.0805105513886861      10.345876549596957      10.117307510429423
   135   3      10.086025340492212      8.0590123878895366      10.338562619467258
   136   4     0.15223946430521706    -0.30826913930710864      12.058512117064073
   137   2      2.1529235402402565      2.0387750436834162      14.184549170903187
   138   3        1.96067191360603      1.9995613164364765       12.18405348479472
   139   3   -0.081670334096766925      1.9903064495213894      14.085102654751511
   140   3      1.9970302341277395    0.049121042376056724      14.339714525201739
   141   4     0.34664235331048165    0.012036659265656944      16.218970487946308
   142   1      2.0586966738125119       2.031458251854191      18.172100747747734
   143   3      1.7899884782939042      2.1309692508447804      16.134107973292107
   144   3   -0.070054098666086487       2.023814452888272       18.30306853473893
   145   3      1.8595889197959012    -0.02781300769293123      18.115150025054511
   146   4      0.2818977283658895    -0.07479201431077083      19.987058868193539
   147   2      2.0410426830654047      2.0665814860885323      22.041246407333578
   148   3      2.0003515798025804      1.9348148529935465      20.196578634570606
   149   3    0.039713395819131754      1.9938753630498054      22.409183199159301
   150   3      2.0288998609542026    0.081152156330074818      22.469098561375294
   151   4     0.24623469661231759       3.946264283699342      12.213111067835646
   152   1       2.016352868556833      6.0418500940754924      14.163252148219375
   153   3      2.0268502114911939      6.3149944944747398      12.136894652662498
   154   3   -0.091621808722082851      6.2472894067005358      14.023630075221638
   155   3      1.7721668421583066      4.0006689199760448      14.126965126732074
   156   4     0.27259352036424794      3.9983186949800293      16.176276218340735
   157   2      2.1295906387967647      6.0517503560845745      18.164144117172512
   158   3      1.7470852914714741      6.0385669423384236      16.207355016549656
   159   3   -0.017706290283337516      6.1014732346245086      18.461693856385438
   160   3      1.7956898215901633      4.0945942478317532       18.19579915894963
   161   4   -0.026624828606813197      4.1123474740964143      19.798613159812362
   162   1      1.9310675630708669      6.0561370228307707      22.214769825573018
   163   3      2.1349234012282641      6.2053092437243365      20.189681093603422
   164   3   -0.082926765655080739      6.1689624474020359      22.337218532060628
   165   3      1.9596905236921216      4.0133797533174524      22.348260825100123
   166   4     0.27355122045081787      7.8857261159644656      12.164003597124962
   167   2      2.1443611854553475      10.127198607269591      14.171167210882356
   168   3      1.8850450731664052      10.098548831639441      12.207448534894514
   169   3   -0.092734200789265891       10.20289888143699      14.258034014593564
   170   3      1.9190022495446544      8.1687841703615387      14.312399621735921
   171   4     0.31385130639231135      7.9739614008791841       16.13285560390872
   172   1      1.9966014301201336      10.103776648342929      18.214059949335123
   173   3      1.8989960530143692      10.246258872928674      16.171929642038975
   174   3   -0.097626900301593295      10.168384417862034      18.286230953296453
   175   3      1.8509440120298499      8.0532282737436827      18.136653422478044
   176   4     0.16452218327613774      7.9253186581601121      19.914891819415722
   177   2      1.8776963371350597      10.135281243234713      22.209283299835032
   178   3      1.8303372666330673      10.023162170572364      20.297138121803034
   179   3   0.0018013913308935442      10.099493321976793      22.511026456749864
   180   3      2.2388552653922478      8.1546143213879478       22.34878658758603
   181   4      4.3047400332354036    -0.20821100138757731      12.035188259121757
   182   2      6.2473418470803708      1.9977903536908144      14.134397569987376
   183   3        5.86006060291718      1.8864778157537645      12.222995867538183
   184   3      4.0190305939318893      2.2007024808901887      14.318043401162686
   185   3      5.9587565746450819     0.11469291043184286      14.423288684104618
   186   4      4.3432116410000354    -0.32076004301574856       16.18459249621699
   187   2      5.9390951283265352      2.0197782358727139      18.339439848345496
   188   3      6.0928253802394972      2.4416529316377487      16.129620124949803
   189   3      4.0820232797227245      2.2209983933673234      18.036333802054912
   190   3      6.0618835081708431     0.13014189898087719      17.924900966827384
   191   4      4.1297642354783761    -0.33114391589556325       20.26723253867862
   192   1      6.0056115712763836      2.0313667091302445      22.248727144638675
   193   3      6.0768018340167282      1.9028660303208276      20.201504749849661
   194   3      3.9615760644356373      2.0482471397185238      22.406190632888972
   195   3      5.9697234534829571     0.02197804420723842      22.549123688573822
   196   4       4.306604628694771      3.8951967793818367      11.903281624144528
   197   2      5.9268534919909044      6.1072279059780374      14.155777288565428
   198   3      6.0369465309812975       6.417979247636147      12.215955295790303
   199   3      4.0423312318552282      6.1598073090193948      14.294823867633585
   200   3      6.0971705206521296      4.1190433582284509      13.903007193800626
   201   4      4.1625046579421419      3.9298278648376885      16.285044892683032
   202   1      6.0474851964352663      6.0941243256948479      18.164288603413759
   203   3      6.2468589968343036      5.8344085227396123      16.129071317988533
   204   3      4.0260828628332925      5.9842898745901048      18.029453081652193
   205   3      6.3124909081694174      4.0288760351430311      18.282863149469112
   206   4      4.2794132691149445      4.4174512748250789      20.514073554727652
   207   1      6.0622210934696561      6.1062839072702282      22.304697834562301
   208   3      6.0592925378900118      6.1180643101425236      20.199844374471361
   209   3      4.0338920798935254      5.9783492098251951      22.268433407510543
   210   3      6.2243027478213024      4.0519274645710972      22.097145655282311
   211   4      3.9287855883860439      7.8230447665092937      11.974661944015997
   212   1      6.1347593654839301      10.096061864996727      14.174795887843363
   213   3      6.0280889227974903      9.9991576130558784      12.105929306354678
   214   3       4.038006907338807      10.164288315698808      14.267025984725054
   215   3      6.0388310570144093      8.0673837271961037      14.583989005571603
   216   4      4.1734993804782601      8.1191065051176174      16.082993961290281
   217   2      5.8643519860493516      10.095356705362784      18.282731197433229
   218   3      5.9869221147824421      10.456059131546715      16.271181223948382
   219   3      4.0124565855460501      10.200492337984095      18.270454316944626
   220   3      6.0438789249451679      8.1614853913917358      17.880738981431264
   221   4      3.9316029499851428      7.9115721244269919      20.559491993822324
   222   2      6.0726165643236554      10.078929534578355      22.369872653664086
   223   3       6.228926589132187      9.9945469499711148      20.210050430848611
   224   3      4.0570558747163021      10.277839032334906      22.134762615449567
   225   3      5.9131642286300607      8.1540365957797807      22.276038478296805
   226   4      7.9764662557597532    -0.33964696358422541      12.063614344068903
   227   1      10.084919330759829      2.0062276566893686      14.167263975375448
   228   3      10.360648467157755      2.0631025473979645      12.102288179015185
   229   3      8.0935407808193816      2.0138641466537659      14.110922791924295
   230   3      10.427833050446059    -0.03794292240163958      14.179965092679108
   231   4      7.8752713343985814    -0.34740603859066238      16.238869915986623
   232   2      10.012785867930626      1.9734156074716476      18.131895317731757
   233   3      10.341604502707387      2.0139930022543364      16.236965328283457
   234   3      8.1323539223725501      1.9899815557595235       18.12242247218763
   235   3      10.329352637946899      0.1029194454285676      18.309226763281881
   236   4       8.013277732154565    -0.32590785909225023      20.212573232230913
   237   2      10.075084352071933      2.0154360888305494      22.113860306267668
   238   3      10.197373895800711      2.1988843975536971      20.201899076109676
   239   3      8.1643910451457842      1.9072811296453123      22.424878379364991
   240   3      10.373195016760775    0.098132392453297773      22.302274946774631
   241   4      7.9117915139071151      4.1129167776577482      11.816492466815292
   242   2      10.006118655334731      6.0440654946504653      14.171190114479781
   243   3      10.300486470112952      6.1083790638857733      12.224605246545799
   244   3      8.1285670092443532      6.1970275811148241      14.063061467677818
   245   3      10.242496238895285      4.1348828159811468      14.223598645859353
   246   4       7.839124314246221      4.1026243046138902      16.407487489612897
   247   2      10.194080258401286      5.9894669003229914      18.290472383725689
   248   3      10.132363330127914      6.2557081460288027      16.143125192201168
   249   3      8.1908315838700076      6.2691989914581789      18.187705531754439
   250   3      10.054632431315467      4.0761175978139113      18.126127755813112
   251   4      7.7231444654774535      4.2736394674066025      20.318965565494299
   252   1      10.118350769330112      6.0020887771580709      22.222547586899228
   253   3      10.208521838897399      6.1566499024295442      20.190034836932483
   254   3      8.0897791316819507      6.2746525038215983      22.210721140878722
   255   3      10.012418871618028      3.9901058585882678      22.481171452008219
   256   4      8.0255443234320278      7.9176295204293385        11.8819338763271
   257   2      10.006870497247565      10.063935747231131      14.173913657592339
   258   3      10.218939712066653      10.236807466468699      12.256525074164525
   259   3      8.1638676078893884      10.075139994643006      14.280873784914904
   260   3      10.348355220745892      8.1232221163889342       14.13449941244952
   261   4      7.8749096291795908      7.9723816387595861      16.327683924985429
   262   2      9.9907350029904389       10.13043715171062      18.256347588547815
   263   3      10.372471533780965      10.065248401832651      16.191392930797182
   264   3      8.1202612214912762      9.9862657104243056      18.065695404464737
   265   3       10.36125333198599      8.1351946419667964       18.16831597028807
   266   4      7.8207840654625631      7.7477448213933382       20.30150072728858
   267   1      10.035597133650898      10.141467570680369      22.199462922331776
   268   3      10.234876036598616      10.055735187276344      20.158796226839584
   269   3      8.0308794181744059      10.017102781162155      22.424613407791309
   270   3      10.302021319887881      8.0870410273570048       22.31593203805339
   271   4    -0.21371521673687549      11.889038914799382   -0.096333875621084683
   272   2      1.9290345452376279      14.130137570112678      1.9360109571346336
   273   3      2.1139926947501047      14.255792390150843    0.054585852166253744
   274   3    0.061715426996706534      14.256559385130329      2.1507047872283329
   275   3      2.1579132613131176      12.220223815508769      2.0671164231807713
   276   4    -0.11803494375962102      11.782026291541822      4.2623269490474121
   277   2       2.031021406023596      14.100261608215146      6.0125727552200878
   278   3      2.1971513852575089      14.320550938363697      4.0912313573831494
   279   3     0.11546986429205594      14.250245082485785      6.1328931015132033
   280   3       2.183958678098429       12.22917860309401      6.0855289557817951
   281   4     0.12581705881287475      11.715455484014452      7.9850107326058053
   282   2      2.0272696576016545      14.071442890403992       10.17683833812341
   283   3      2.1291310979179858      14.257864965001765      8.1064151641802269
   284   3    0.036635382211450913      14.163349408265118      10.118507818177269
   285   3      2.1412069041634463      12.190131771663358      10.240233820160007
   286   4    -0.17338597596405761      16.121785383988911    -0.16800248827143982
   287   1      2.0014853169404891      18.226665331328718      2.0083849157832541
   288   3      2.2284678148658497      18.286188052124373   -0.019365091864355928
   289   3  -0.0086765193457697919      18.255633195770812      2.2371457825507712
   290   3      2.2135683743113859      16.167130639486874      2.0526252019279028
   291   4    -0.10326669020802204      16.347815731622902      3.7373572814992895
   292   2       1.969755560545926      18.221385336719809      5.9865452882517669
   293   3      2.1522746390213587      18.158492908749491      4.1094240460550662
   294   3    0.059912771654913904      18.261772883698598      6.1553228498614061
   295   3      2.0744355016125073        16.2630759349769      6.2596682189679633
   296   4    0.022530478832215175      16.055376522770029      7.9421964308941435
   297   2      2.1277569922040818      18.218425838429386      10.055414596186614
   298   3      2.0987068395504456      18.373929739038235      8.1325379889734251
   299   3   0.0083217190191361319      18.450258409652996      10.157891546729749
   300   3       1.905926059090153      16.262525698250766      10.068544740801482
   301   4    -0.14115437295526556      20.553484365164895    -0.19909841890259281
   302   2      2.0722678919650077      22.281886737472853      1.8701447875891086
   303   3      2.0021974663782767      22.194254620471519  -0.0099212957013004588
   304   3    0.055554115193368621      22.201317123957448      2.1568672280593515
   305   3      2.0620366052589332      20.312255130487191      2.2421514561321492
   306   4    0.018487321602323661       20.26343880582548      3.6545271018139207
   307   1      2.0008933802532516      22.269295575777189      6.0103111813008079
   308   3      2.0436930217819014      22.501995774336454      4.0268560499894761
   309   3   -0.030939444768527002      22.222074693032546       6.193705394097428
   310   3      2.1336782152004083      20.194456836293419       6.108176105752765
   311   4     0.19670818941714122      20.417527859831328      7.8585199776066439
   312   1      2.0518416623799514      22.255447403243135      10.143256141550799
   313   3       1.906553590245206      22.132101577032572      8.1372411415960144
   314   3   -0.055895569827312551      22.263870929832098      10.363932747122021
   315   3      2.1152439261057037      20.221448864774256      10.391283043686645
   316   4      3.9667514865044442      11.825987686445394     0.12301278156569832
   317   2      6.0183653931063263      14.046225461450494      2.0787711480856967
   318   3       6.040507735283092      14.035938576461819    0.035730223885692691
   319   3      4.1050800475823621       14.25685172741629       2.081745739661669
   320   3      6.0751836424545473      12.194216147344978      2.1855606481126499
   321   4      3.9807866845326352      11.759084987568158      3.9599811578765998
   322   2      6.1185960337038789      14.034162093426932      6.1100087921205661
   323   3      6.0760142998294313      14.440216974900984      4.0239669078108884
   324   3      4.1065910499945888      14.437842212332873      6.1214006080783951
   325   3      5.9453403287816489      12.180007430053285      6.0040935560101447
   326   4      3.8742579381364397      11.779461460696517        8.10932142069883
   327   1      6.0809166946331699      14.135655188677305      10.071242824456514
   328   3      6.1213369849256472      14.316668323773996      8.0212657301679098
   329   3      4.0092198358477171      14.412885490316185      10.095313943029584
   330   3      6.0312504956372504      12.151199293463748      10.416816237650931
   331   4       3.742536850902026      16.194581976763793     0.04499562849209416
   332   2      6.0711404886355176       18.18307936306444      2.0545432087005295
   333   3      5.9808140337288132      18.559950329265256    0.037646519740867287
   334   3      4.1123294538783464       18.37613410791695      2.1109899539321346
   335   3      6.1101099350914385      16.243174152095772      1.8390094738325748
   336   4      3.8475878199829046      16.127191605751097      3.8623850799126695
   337   2      5.9803768342587915      18.252608807474175      6.1032543653531768
   338   3      6.2472876187747879       18.17609523728429      4.0580487719040708
   339   3      4.1016669521836056      18.179562902624991      6.1159467968905892
   340   3       6.344042985337925      16.294172545580679      6.1117978983866665
   341   4      4.0110393290550554      15.893449679583281      8.0940492806056721
   342   1      6.0880724095002083      18.233484452607964      10.084122856447493
   343   3      6.2962189290339472      18.287202098256902      8.0448277054554254
   344   3      4.0435615737219379      18.199452409237118       10.28697096191727
   345   3      6.2418841285880937       16.20641091855579      10.126428335728091
   346   4      4.0775885986516505      19.961744824161343   -0.053167269073187882
   347   1      6.0493784273167028      22.291093082261707      1.9670417523226627
   348   3      6.1299939229136804      22.086394425580767   -0.048744241033477055
   349   3        4.01128407306427      22.297946767001555      2.1500055276223349
   350   3      6.1828580756297837      20.235839269323844      2.1888953088996757
   351   4       3.885788889839676      20.232160725108187      3.7552846246010523
   352   1      6.0561200471603671       22.25420973901673      6.0738386795790582
   353   3      6.1339175470931711      22.417704166218019         4.0531151238389
   354   3      4.0344372477810921      22.392049430740499      6.2018943770678865
   355   3      6.1773139816689371      20.212822838475894      6.0255000871701485
   356   4      3.7740164356486408       20.65351581517217      7.8275737105755052
   357   2      6.0996047629492676      22.272628481204343      10.039644472320061
   358   3      6.1725973764221989       22.09616640479188      8.1401897432754744
   359   3      4.1172850942402537      22.229950066041852      10.248567022084732