(written by ASE)

1080 atoms
4 atom types

0.0      24.299999999999997  xlo xhi
0.0      24.299999999999997  ylo yhi
0.0      24.299999999999997  zlo zhi

Atoms # atomic

     1   4    0.062961184257753738    0.018236585941038583    -0.41948341000157124
     2   2      1.9048248499994005      2.0440414452044222       1.940942296431672
     3   3      2.0160105301448756      2.1169508926358032    0.063467198573335021
     4   3 -0.00024461392597030545      2.1431289696878046      2.1591116530001009
     5   3      1.9628896223742371    0.037892573941777537      1.9875129437482117
     6   4    0.058930007360515249    -0.39836593517073121      3.9157488281283857
     7   2      2.0539881127243476      1.9907206636973982      5.9653162536221496
     8   3      2.0631750811585703      1.9504233236253192      4.0933656533995606
     9   3    0.058514000088211476      2.1024199956781819      6.1939847462406759
    10   3      2.0187596697399184     0.08247148060197558      6.3335772872711189
    11   4     0.24522612864449864    -0.36825980495836197      7.9296834860434364
    12   2      2.0303644528683069      1.9372701567762114      10.074971471530231
    13   3      1.9435682210104646         2.2392874870288      8.1910083453541098
    14   3   -0.023686609429542642      2.1918511860504717      10.292903353640979
    15   3      1.9204131443939072    0.059865513568259157      10.134643268648237
    16   4   -0.098171905534537071      3.9480168462843852    -0.44265911357001519
    17   1      1.9381610314595645      6.0157893986979589      2.0536447156315005
    18   3      2.1089289229673134      6.1046803226891297    0.016296561125157767
    19   3   -0.079840880355131011        6.12239010344123      2.0471376479366343
    20   3      2.1890517037306445      3.9772859256561488      2.1763105997210639
    21   4    -0.30301155425307275      3.9846519691518676      4.1528975002939053
    22   2      1.9593526947547184      6.0504686974602668      6.0025332803571239
    23   3      2.2059669411259799      6.1264228622718209      4.1244548335258209
    24   3     0.04078060915913722      6.0929292960287018      6.0492953140171393
    25   3      2.0191083620846606      4.0556992165899732      6.0684765307177759
    26   4    -0.13314275956489721      3.9130381140486667      7.8643825049339302
    27   2      2.0682087119145574      6.0234483492993789       10.05343264880395
    28   3       1.976330500588132      5.9202132928191631      8.1478421226868267
    29   3   -0.027156237065314847       6.131425557293734      10.343226645238557
    30   3      1.9526720841408716      4.0855281172980913      10.419182266979275
    31   4     0.10121539273983153      7.6895239184485629    -0.10846668084368352
    32   2      1.9612810601196669        9.97867793738628      2.0514862134034613
    33   3      2.1656249086487671      10.239528932743013    0.042762613059645863
    34   3    0.032101452380272143      10.289963526816521      1.9215554589807637
    35   3      2.0952814573160152      8.1081777079965125       2.031569872575993
    36   4    -0.39405382604280204      8.0065934950587625      4.2507197597776845
    37   1      2.0380000993115495      10.070501041620098      6.0487622471371436
    38   3      1.9947965758703339      10.238823703742645      4.0062166825027168
    39   3     0.01712873746114665      10.243165383020852      6.1790819871849578
    40   3      2.0022706642278574      8.0208200736311781      6.3211172235922275
    41   4    -0.10930957452589886       8.182234448302852      7.7198630589715078
    42   1      1.9912140566789005      10.068183274622736      10.148187197594158
    43   3      2.1311806861159281      10.254135792930805      8.1220407799770911
    44   3   -0.054527314303276959       10.37356397206487      10.133552824432272
    45   3      2.0596014980583885      8.0382051693688723      10.037141390495712
    46   4      3.9932514532095378    0.013110495881225231    -0.39320741621718414
    47   2      5.9335946151532486      1.9435489952615115      1.9401131385981554
    48   3      6.1283531032683873      2.2256885293421318    0.067822726053755764
    49   3      4.0439954915721144       2.017194749811611      2.1357267286039963
    50   3       6.202828844859253    0.061578663361548949      1.9197395449145205
    51   4      4.0757419865623996    -0.49758278726828598      4.0728746829336409
    52   1      6.0293399310452971       2.025604321833367      6.0137359320742938
    53   3      6.3005652163259684      1.9589128106452545      3.9949598772607402
    54   3        3.98745670776005      2.0526020256683317      6.3207597197532452
    55   3      6.1410232393274775    0.013346550254290386      6.2485670674180227
    56   4      4.1377021428001948     -0.1120240828775132      7.6767744871117252
    57   1      6.0787299959697272      1.9902749378065823      10.167938416712412
    58   3      6.1531458210341281      2.1964359749348192      8.1386879613543943
    59   3      3.9586244682177267      2.1687689109669401      10.158332270340154
    60   3      6.1242464065449465   -0.043893890099051543      10.074919488972611
    61   4      3.6695552416358148      4.2838884188202382    -0.18308067372892786
    62   2      6.1498757720958581      6.0781953899884762      1.9180788809586522
    63   3      6.1122505447851063      5.9624985102704828    0.050670233201071418
    64   3      4.1407058332602098      6.0544151198214227      2.1634814497615453
    65   3      6.0735963153718524      4.0685113591756981      2.3054436931829803
    66   4      3.9376375152219008       4.140993157380767      3.7305199538588072
    67   2      5.9476126522417614      5.9754206217166423      6.1062082130726338
    68   3      6.0078449768890199      6.1988920756486312      4.1727439003598024
    69   3      4.0577932967678665       6.103290723533199      6.2705446083855465
    70   3      6.1527990063446136      4.0791934554519109      6.0434377608277252
    71   4       4.256420610906698      3.6571425802352784      8.1103182423402718
    72   1      6.0467877632488376      6.0533336931521777      10.092382832446944
    73   3      6.3402515868309015      5.9890565851197834      8.0744244671719301
    74   3      4.0034497608212849      6.0878530940407929      10.247455223368332
    75   3      6.0781155385139298      4.0608198529431458      10.432535891643496
    76   4      3.7798512472731991       7.764185509847934    -0.16570095736637611
    77   1      6.0399009266359487      10.070237643757761      2.0008670234649855
    78   3      5.9550163169008004      10.344669148802403   -0.032523009431191026
    79   3      3.9955858233216519      10.240939356084118      2.1113207763792619
    80   3      6.0924406005992058      8.0242953040981657      2.1392309049078535
    81   4      4.0720247006220207      7.8981499257927386      3.7166818430593813
    82   2      6.0427164322008666      9.9728869413920584      6.0542960560853381
    83   3      6.0705062626296327      10.095239215453683      4.1361777887389302
    84   3       4.098011170251902      10.123932747641517      6.1644460465447901
    85   3      6.1818222438050636      8.0947047906973264      6.3077560286542145
    86   4      3.6086315676360865      8.2832527724887868      8.0926843150533987
    87   2      6.0769915548306654      10.047422402926022      10.170582386053717
    88   3      6.1080345787810923      10.370046078561941      8.1120882817670097
    89   3      4.0984441359580224      10.153050898288521      10.112620051967255
    90   3      6.2611350024364016      8.1242582552551657      9.9792494260840474
    91   4       7.847851703131612   0.0014400151451536528    -0.29198305803092089
    92   2       10.04374682892681      2.0317673984559468      1.9102617691663502
    93   3      10.309238836076252      1.9802202911022957    0.035519742331392476
    94   3      8.1538682448175557      2.1540615451329415      2.0019047148821896
    95   3      10.205098477877732    0.063883280824114652      2.1802131458607019
    96   4      7.6245612706148753   -0.090276912945552512      4.1041623301529135
    97   2      10.143369987396982      1.9472290918813289      5.9627046040272518
    98   3      10.102288690846116      2.1599929486025093      4.0821731037560154
    99   3      8.1980727748033342      2.0844650984849702      6.2368262212013912
   100   3      10.183477895946529    0.026335881406897268       6.067919847566734
   101   4      7.6837413171085673     0.21671038700639245      7.9137604695236723
   102   2      10.026594385208014      1.8937144149317182      10.151590247514608
   103   3      10.199862071780107      2.0879630722243707      8.1686910441442535
   104   3      8.1485397061336471      2.1543720962848631      10.241973378023218
   105   3      10.150537712702704    0.023075021489643049      10.131955147054475
   106   4      7.8855919125985867      4.0193336336189383    -0.44489450569928579
   107   2      10.252277229736261      6.0846250473946988      1.9139840156234773
   108   3      10.060455090144863      6.1242560573148781    0.039555978420893485
   109   3      8.1121313531636705      6.0285686959694367      2.2387497856951861
   110   3      10.222268283410937      4.0190045029767116       2.066888351176658
   111   4      7.8314097589748455      3.8266365751810585      3.9535425189407194
   112   2      9.9917787668842291      6.0135752407235668       5.966994909976683
   113   3      10.232242648085476      5.9413031249191333      4.1061639005154618
   114   3      8.1178353775891949      6.1362491484721575      6.0670515578830786
   115   3      10.176139639258542      4.0830856312940265         6.2934248987923
   116   4        7.82902218851103       3.810928210359656      8.0395726360681614
   117   2      10.240567219634503       6.024635492013477      10.041200087908969
   118   3      10.058966931937794      6.1877367237119865       8.142719020331862
   119   3      8.1861589250806901      6.0796959378865534      10.372057335262062
   120   3      10.231250326606968      4.0809325005458934      10.197463734326512
   121   4      8.3618518118159724       7.930515963917796     -0.4441723958018241
   122   1      10.149420927159136       10.06284001081133       2.028619856202456
   123   3      10.207841869678235      10.186437568374311    0.011736807166715938
   124   3      8.0868970014106694      10.171273793281751      2.1126704496197357
   125   3      10.102524691805982      8.0066926116269794       2.225167063245316
   126   4      8.0785100421964575      8.2172150571936005      3.6095415783375464
   127   1      10.021267564288829      10.072957442826072      6.0894488457589429
   128   3      10.157312423734387       10.15418122026737      4.0696298496780425
   129   3       8.017535765728292      10.336431391198241      6.1159242284762483
   130   3      10.256536060176792      8.0092824483364282      6.0745355126901401
   131   4      7.9176598251832813      7.7860124698407427      8.1660436559998928
   132   1      10.103917816005451      10.087320200595688      10.174874900510497
   133   3      10.207528887354174      10.170465886771126      8.1321280237403819
   134   3      8.0774705731835255      10.344356195548405      10.114315203405178
   135   3      10.079024784733349      8.0603727736986528      10.339610559295181
   136   4     0.17133743007924199    -0.28269589668377915       12.02354122692744
   137   2      2.1571411968131784      2.0434444137054135      14.177000234275242
   138   3      1.9629053221150794      1.9851589559041931      12.198276750238222
   139   3   -0.088226901818976897       1.965676888613149      14.103228261829544
   140   3      2.0032984863400602    0.043121993028899797      14.357142868388141
   141   4     0.34255981543573916    0.025612018413073222      16.202265808561847
   142   1      2.0589610902872577      2.0209150127056481      18.177328293761732
   143   3      1.8001996328131389      2.1326151820507397      16.138205840226473
   144   3   -0.072373891342184041      2.0437147678450893      18.288405281723648
   145   3       1.842475058975664   -0.033381035804429186      18.114470702680702
   146   4      0.2700311009858401   -0.090266781135928384      19.992522812825129
   147   2      2.0373950845781259      2.0554706582122049      22.048687641130428
   148   3       1.967100121218718      1.9272540944917433      20.201835098153985
   149   3    0.036513359787107423       1.992851447927152      22.438657836471897
   150   3      2.0353409980651049    0.081858971342052195      22.480567225943961
   151   4     0.23297864339039476      3.9292154454023969      12.186416708677415
   152   1      2.0131820920639467      6.0309487873065555      14.164351299831861
   153   3      2.0202396357305736      6.3341760538584717      12.151144699938166
   154   3   -0.097709848917214279       6.286994275158361      14.064160021309329
   155   3      1.7612061483123409      3.9926999275159716      14.119121857230136
   156   4     0.27083048219645361      3.9776795659349049      16.177797113764509
   157   2      2.1349449674987597      6.0398618175549652      18.178692743395466
   158   3      1.7524196723057801      6.0011197892266681       16.20750967808738
   159   3   -0.025414364933028132      6.0922037141683143      18.416939633221165
   160   3      1.8214621863087572      4.0867147449332775       18.20855311597213
   161   4   -0.026899476188965599      4.0941379995542437       19.78765052659482
   162   1      1.9510566322909659      6.0557420976383396      22.202130658227773
   163   3      2.0760944407625215      6.2167835624746255      20.182322620558441
   164   3   -0.075155481005736866      6.1580183582801222      22.350856173228436
   165   3      1.9584087240169985      4.0123307077557424      22.342497087632232
   166   4     0.20733106486862979      7.8456029016012749      12.146306815903912
   167   2      2.1203771225034203      10.104767138637371      14.152854009550445
   168   3      1.8607372034132643      10.069332676034835      12.205195460425644
   169   3   -0.079573086643040816      10.152862467949262      14.345389636794474
   170   3      1.9783912750059052      8.1720079746066396      14.387023894823059
   171   4     0.22504406151968606      7.8404830956889882      16.130490207305812
   172   1      1.9894826478939447      10.086293856343913      18.204762707691582
   173   3      2.0305114890339664      10.385077328981129      16.177057006191841
   174   3    -0.09222328474673594       10.21552825201683      18.219910307034112
   175   3      1.8434695377842578      8.0449480590568445      18.095187003479165
   176   4     0.20576489958050306       7.883340703774488      19.916352077811641
   177   2      1.9139572742812421      10.101291177474486      22.169966474499617
   178   3      1.7992212060478461      10.026882493901768      20.273148330605384
   179   3    0.020234600773547273      10.092635981698821      22.524967840507831
   180   3       2.170272848369954      8.1483014338020787      22.407141148792832
   181   4      4.3175515876477819    -0.19135810561178251      12.000561505939787
   182   2      6.2548241082647973      1.9956131365829222      14.136333129947142
   183   3      5.8886743616245569      1.8871328805348879      12.230721291796288
   184   3      4.0241879797922175      2.2050520385129144      14.327365370272195
   185   3      5.9569744100934576     0.11273934533620222      14.428477552593636
   186   4        4.34969795322215    -0.32166869697272893      16.180357667277036
   187   2      5.9477152422364812      2.0058523003919229      18.335523704669498
   188   3      6.0940872970191862      2.4356361473660861      16.148171083782891
   189   3      4.0862195073266214      2.2086374902188814      18.056739776059644
   190   3      6.0676868209211463     0.11965545045125933      17.948684325922017
   191   4      4.1240103781284549     -0.3351943292554731      20.273117500311383
   192   1      6.0222849491102153      2.0188469952251218      22.262377076033559
   193   3      6.1057244247971942      1.9252183007876327      20.204619430853882
   194   3      3.9718898924972983      2.0705533102831413      22.334922703719112
   195   3      5.9815490202846977    0.019816827968947282      22.556778788153338
   196   4      4.3026048193259578      3.9105882529119169      11.893475284606621
   197   2      5.9345385145221909      6.1033961439376352      14.157340254515734
   198   3      6.0423275724700893      6.4049433330563055      12.223639983504254
   199   3      4.0452152215565045      6.1227504761083154       14.31137667920123
   200   3      6.1235420387474733      4.1119872189301638      13.930214880074862
   201   4      4.1532137894301915      3.9086159941208565      16.285667357191475
   202   1      6.0563991787514491      6.0867020145341613      18.175183119734424
   203   3      6.2579084654488657      5.8411115016155062      16.141100050287257
   204   3      4.0294294289908059      6.0332960993698102      18.018270093981641
   205   3      6.3140594821351135       4.033183601244394      18.307526950192546
   206   4      4.3070072163666531      4.2779208957254706       20.60537039446632
   207   1      6.0800337096023238        6.09987425186032      22.313664767988826
   208   3      6.0299790752759481      6.1882395747901491      20.209320528449393
   209   3      4.0397265810299485       5.986935965248124      22.241251737914876
   210   3      6.2266837875079863       4.051549795899243      22.066888131603722
   211   4       3.918591034894495      7.8203660258788528      11.982107233964406
   212   1      6.1160468406245645      10.085277196094845      14.183106755690156
   213   3       6.039257789033595      9.9861176138964076      12.113453211656168
   214   3       4.023149319380015      10.233312183506257      14.212976871168909
   215   3      6.0131106577912323      8.0582315938401265      14.585629581667877
   216   4      4.1108004488446941      8.0233508093735963      16.105460287963041
   217   2      5.8662042630604256      10.083135514939553      18.290557167427373
   218   3      5.9828632264849491      10.463592319090647      16.260262579162408
   219   3      4.0081917248444174      10.243700765622448      18.208650865142776
   220   3      6.0207726762834373      8.1622761668080344       17.88031863389584
   221   4      4.1395432879527334      7.7585982163626417      20.518352064842727
   222   2      6.0900002238253057      10.090222286446393      22.367744944678968
   223   3      6.1467848544745518      9.9675081760118776      20.214803373596652
   224   3      4.0293767675934289      10.316658961430761      22.190808917518062
   225   3      5.8508406681195391      8.1627530531321888      22.307263366981985
   226   4      7.9848388193675541    -0.34804898806019224      12.074160877474059
   227   1      10.094331141635928       1.993568468282251      14.172383447983053
   228   3       10.37500064528016      2.0624512398542696      12.100884077099265
   229   3      8.1015576206592144      1.9947229360188927      14.130567885839476
   230   3      10.441870696209611   -0.048894178747501758      14.175872588449934
   231   4      7.8966888956728845    -0.36144001052150665      16.220573889091348
   232   2      10.022955672892277      1.9571448888876641      18.122584095388856
   233   3      10.330800871140683      2.0207297693627817       16.24029353707386
   234   3      8.1370942238324098      2.0001333034628059       18.12936697304135
   235   3      10.315224722268901    0.094307674038766359      18.330906205425915
   236   4      8.0199904211176545    -0.33283187665737207      20.207817253372191
   237   2      10.087141116003743      2.0103206885631884      22.115305939364116
   238   3      10.187797356956914      2.2015264854019834      20.207499318470756
   239   3      8.1697872981410491      1.9235349285804479      22.438827366344071
   240   3      10.364508980905509    0.094584491700007323      22.307752317514922
   241   4       7.919347025778567       4.100619844655788      11.814094029590162
   242   2        10.0172974064679      6.0304952752199954      14.170330198325205
   243   3      10.296159681115356      6.1240307264249205      12.234601934659077
   244   3      8.1362817056574919      6.2135823908961703      14.082451512648852
   245   3       10.22462441061732       4.133401133707804      14.232788684801573
   246   4      7.8333715753860851      4.0904513153162583      16.402912420909924
   247   2       10.19902141174172      5.9847246650626413      18.269002158056793
   248   3      10.127687854103366      6.2586073127766522      16.162802860514073
   249   3      8.1828592313696547      6.2782453972408412      18.217075569393401
   250   3      10.049280850453407      4.0780142316756285      18.159076293800094
   251   4      7.7464649780447887      4.2177401556366672      20.289087123269493
   252   1      10.119433481820254      6.0053431288714334      22.219685619047198
   253   3      10.183360804186922      6.1988393172018306      20.185016187128198
   254   3      8.0909787836555029      6.2930740855743483      22.215133159693274
   255   3      10.010320709240089      3.9954759203686327      22.480488677399748
   256   4      8.0388641955932449      7.9151106105346329       11.88438060000551
   257   2      10.007237881838684      10.061355458795338      14.170712300902752
   258   3      10.189587389693797      10.246167917722767      12.261991485781811
   259   3      8.1612264505856391      10.067288309113083       14.30911023687249
   260   3      10.352411018275419      8.1319431111863256      14.165986923627178
   261   4      7.8502842323739763      7.9535787112749334      16.312665710284985
   262   2      9.9813795216401946       10.13537099372515       18.25437576939056
   263   3      10.385830927280264      10.089475407314628      16.201515081090541
   264   3      8.1066445659056559      9.9914032639116606      18.075460273100799
   265   3      10.365113431780831      8.1463953531104423      18.170133687483968
   266   4      7.9105080711107716      7.7138955526630397      20.292333997346624
   267   1      10.035556216931225      10.141843720090234      22.196554484939696
   268   3      10.240368088018148      10.057400780443944      20.159183544112448
   269   3      8.0243558252071043      9.9885643006341756      22.408282857927695
   270   3      10.298068107843068      8.0919291021709121      22.319212252069622
   271   4    -0.15327128627644612      11.848704550213862    -0.12903666620771453
   272   2      1.9297560681085015      14.126471959290351      1.9284281958144278
   273   3      2.1136578439007598      14.240522575522903    0.050513638315217969
   274   3    0.057707764654589551      14.252860143953724      2.1492724420067257
   275   3      2.1654318531936103      12.226995272248807      2.0934807879850235
   276   4   -0.084019636126934139      11.749755472194783      4.2419120619555191
   277   2       2.036190823320239       14.10242091271166      6.0044304389220065
   278   3      2.1866745765634441       14.32957907947935      4.0926949491669182
   279   3     0.11074879012422546      14.246471741224866      6.1388299418785754
   280   3      2.1799517782281201      12.233845989825728      6.0928923461106104
   281   4     0.14439637888162468      11.704915943951796      7.9858759894883251
   282   2      2.0380874983907917      14.068654523310464      10.182356401033395
   283   3       2.109047718008576      14.277850030659833      8.1126890419405111
   284   3    0.041934068476745703       14.18284878520214      10.103895532987595
   285   3       2.132527757418397      12.190108067674766      10.256701102547321
   286   4    -0.17964781715677708      16.128215801886945    -0.16667055002367029
   287   1      2.0041699845243182      18.231623006293251      2.0013247688564388
   288   3       2.237764782984601      18.284205722548439   -0.023714997721341849
   289   3  -0.0052882457981622121      18.263932719686139      2.2303891952286947
   290   3      2.1952286500629001      16.168383787586222      2.0519547853598366
   291   4   -0.088863436900286433      16.338794586789284      3.7173356299398157
   292   2      1.9636668279135607      18.221842030903634      5.9828831380813696
   293   3      2.1406097433050162      18.162498474867245      4.1077518530398089
   294   3    0.056647913090605184      18.322737593414935      6.1478341018937481
   295   3      2.0523281517937826      16.272880846419728      6.2695789004216946
   296   4    0.093633221668267624      16.006193128423451      8.0031460797616436
   297   2       2.148571680429701      18.224778287282351      10.067079714485654
   298   3      2.0702851684300407       18.40256078936735      8.1377734486463336
   299   3   0.0087341204597688963      18.463392263569887       10.15053279719462
   300   3      1.8977580437593109      16.272347301594859      10.052419565578841
   301   4    -0.15753957384896489      20.551963027839346    -0.18917668924488568
   302   2      2.0583641323944848      22.282072146472878      1.8771731862882293
   303   3      2.0038512135091784      22.210309716345407  -0.0067758322739027493
   304   3    0.056049311676598539      22.219563757031985      2.1606628215499657
   305   3      2.0642074658174607      20.312927922130349      2.2354880720766257
   306   4    0.021577030440017721      20.230331068142529      3.6547015621697332
   307   1      2.0148495096013779      22.273000929329321      6.0111670619664102
   308   3      2.0558897460780314      22.504840786591846      4.0256345786106102
   309   3   -0.024729532463570368      22.329653718875093      6.1625261460666199
   310   3      2.1358645291572209      20.204801191703542      6.1182077200724523
   311   4     0.27010589839965798      20.392156500241274       7.879592225140394
   312   1       2.065577842553282      22.263497914547063      10.134716858286197
   313   3      1.9307569457363229      22.129931769041665      8.1308885809560394
   314   3   -0.043997070183289085      22.279126720191709      10.351019798730052
   315   3      2.1128218169936916      20.231955655154749      10.387958092928574
   316   4      3.9499804099801112      11.826668384964783    0.073271115095239453
   317   2      6.0120403178500972      14.045362026073676      2.0745806013502754
   318   3      6.0398594064352373      14.022196538097877    0.037924376038985803
   319   3      4.1005350142621264      14.270936645525326      2.0884896361852081
   320   3      6.0712552661196257      12.194969270585812      2.2008583651615603
   321   4      3.9712334423653015      11.761700304102584         3.9542061735514
   322   2      6.1197162832217797      14.036418082312272      6.1061015919768344
   323   3      6.0728623889588054       14.44445480547296      4.0256520248249998
   324   3      4.0954495598955258      14.436302194267352      6.1300963716708576
   325   3      5.9465850966092724      12.182685465840649      6.0025786668437098
   326   4      3.8907152703349914      11.781369018484471       8.111843097997772
   327   1      6.0797891702939149      14.126016836493282      10.080236575637942
   328   3      6.1130660083344051      14.315450505789652      8.0224096265164686
   329   3      4.0089848789449531      14.414319716236916      10.092463438058799
   330   3      6.0265846678074819      12.144089610025402      10.433746894311339
   331   4      3.7346934631761135      16.207518545782182    0.027248911558261573
   332   2      6.0704153867032327      18.184058987077918      2.0453806387038949
   333   3       5.975465869120935      18.559408008415353    0.038118100311423091
   334   3      4.1105857565198178      18.355806745814185      2.1203823598349483
   335   3      6.1203886438979511      16.241292557417573      1.8382712244111841
   336   4      3.8475440602442772      16.142279227115928       3.839816085428239
   337   2      5.9764111305388479      18.249240695025613      6.0945139595985749
   338   3      6.2504964882892331      18.167111221601534      4.0575589276170856
   339   3      4.0961673894060082      18.183881330999331      6.1180165237090636
   340   3      6.3347421435299784      16.291161836110554      6.1135397033547569
   341   4      4.0326576616913377      15.892502627010145       8.102641097476484
   342   1      6.0914072679641782      18.233801338737887      10.083443949586572
   343   3      6.2941656110472097      18.283499326356576      8.0401731115630195
   344   3       4.052272421274461      18.207080138843651      10.270824111208423
   345   3      6.2379782948199596      16.204487405395888      10.123491253377217
   346   4      4.0685850272672104      19.964775520283933   -0.072122793523721779
   347   1      6.0498114730749002      22.289716650018299      1.9630851172571115
   348   3      6.1330269938442061      22.085908451017765   -0.050251434949287105
   349   3      4.0107534610546987      22.293438989878517      2.1517314043127396
   350   3      6.1655867616766953      20.231961839763031      2.2000203488699555
   351   4      3.9076165197197366      20.251321683725056       3.736490999443161
   352   1       6.064080792281346      22.257394753989107      6.0655550902445832
   353   3      6.1362840775108687      22.419107413037334       4.045584514883549
   354   3      4.0476133184718703      22.385438768810371       6.196488176846545
   355   3      6.1770894919393511      20.211191603550752      6.0243375313577774
   356   4      3.8035473253664862      20.646406488911634      7.8099310916316593
   357   2      6.1093150032064933      22.273909291677793      10.032621339435446
   358   3      6.1833812392190355      22.109623940713409      8.1335435316059588
   359   3      4.1250350886159923      22.235890497622481      10.246558254985178