(written by ASE)

1080 atoms
4 atom types

0.0      24.299999999999997  xlo xhi
0.0      24.299999999999997  ylo yhi
0.0      24.299999999999997  zlo zhi

Atoms # atomic

     1   4    0.095090408722743214     0.02976274721071865    -0.44697074830062589
     2   2      2.1215485493515378      1.9900794573702725      1.9232278913525769
     3   3      1.9043535108571197      2.1379725064463861    0.067603293319536101
     4   3   0.0010231972024320119       2.090955074189301      2.2390724102267172
     5   3      1.9630478994102936    0.048619937493562852      2.0226653860928727
     6   4    -0.13738303373854888    -0.16647868223084158      3.7996873488611715
     7   2      1.9901416689748102      2.0612098754617167       5.968564829492137
     8   3      2.0364808417500067      1.9650337678566983      4.1071656225615234
     9   3    0.062111937059361848      1.9626168057269755      6.2195739881261654
    10   3      2.0490073252781142     0.07922493920542284      6.2933581832209429
    11   4     0.11443415798056313    -0.20673999775171947      7.8110447004309718
    12   2       2.101915232804251      2.0078541611762013       10.03951902658838
    13   3      1.9728605424268117      2.1461074706907746      8.1731380545816421
    14   3   -0.034596311674697601      2.1321231176812536      10.374718182873201
    15   3      1.9036706290370684    0.085358903871903535      10.171916196062575
    16   4   -0.028197797590949685      3.9608451868322789    -0.47476547538608566
    17   2       1.990613323349312       5.936386517577346      1.8608704036391515
    18   3      1.9246372303140786      5.9224697147833174    0.023281883524862844
    19   3    0.020712794044290644      6.0069256648577056      2.2917126504456249
    20   3      1.9328107868266744      4.0246802541775342      2.2352852162028181
    21   4    -0.13063711870104042       4.007798239074341      3.8540552132802421
    22   2      2.0556504068030468      6.1093018990041728      5.9875267510125774
    23   3      2.0532844748155097      6.1537054426271505      4.1157236688687204
    24   3    0.043649368526004144      6.0941046781459169      6.2489447808869025
    25   3      1.9349909621292145      4.0347306316795253      6.1474889435246434
    26   4  -0.0079794469487260052      4.1266154289264243      7.8321892738478303
    27   2       2.125369681741581      6.1056449984204013      10.176444199642596
    28   3      1.9108289797691493      5.8839881413102626      8.2089900709531545
    29   3   -0.051526554732567072      6.0807885582413581      10.270993632567096
    30   3      1.9490375852839017      4.0354821652597872      10.407331056202478
    31   4     -0.4050040884541235      8.2444185162134325    -0.15855355024896681
    32   2      2.0067468149455294      9.9342704590128399      2.0418433217845036
    33   3      2.0754128014707125        10.3191870374029    0.029946856823144949
    34   3    0.080425905819695609      10.305271642665195      2.0254871327024362
    35   3      1.9601622690469918      8.0459013614509978      2.0019615687319625
    36   4    -0.26484425303792475      7.8693974018053536      3.8977597980893584
    37   1      1.9896281810931573      10.073942440178186      6.0390451934677971
    38   3      2.0558215724315176      10.196060591935725      3.9946758189197804
    39   3    -0.04759891027916114      10.242606978628471      6.2381335301160616
    40   3      1.9863804394674529      8.0306925167508822       6.363570238607501
    41   4   -0.011162484593692618      7.8877818830894491      7.8815220339925132
    42   1       1.993258245291637      10.066995953829631      10.169164437740509
    43   3      2.0630270429640052      10.265613910058658      8.1349500935688202
    44   3   -0.078450871327948105      10.383584322960612      10.171929032333912
    45   3      1.9973267918746507       8.033314575023164      10.023249039309025
    46   4      4.0030124900032682     0.02415601741441803    -0.39254201722992471
    47   2      6.1464897211695977      2.0245447548188609      1.8868664775774602
    48   3      6.1169912083767377      2.2309652199462731    0.026817234000086631
    49   3      4.0193246621632568      2.0665219595596569      2.0561776514729146
    50   3      6.1113668462976474    0.037502794820465077      1.8745070815077451
    51   4      3.9706658061891451    -0.34220990274714602      4.2210870371362104
    52   2      5.9636733865993268      2.0418885434589389      6.0519523290905255
    53   3      6.0120711537762173      1.8534640844395214      4.1080061427325854
    54   3      4.0343131399524319      1.9678423661728566      6.2587545782408265
    55   3      6.2426283145682557    0.053650908360589548      6.2325614976297707
    56   4      3.8132922093265171    -0.27829552053765766      7.8685617517373849
    57   1      6.0597367997168838      2.0017303272225755      10.122414578399546
    58   3      6.3036266955947049      2.1286507797266307      8.0848238290186156
    59   3      3.9910003625422847      2.0768598949119101      10.252855895420979
    60   3      6.1950717087827201    -0.03228604001982336       10.04937217675479
    61   4      4.2835627177932434      4.2563972910917292    -0.35296847301807838
    62   1       6.130548610208427        6.01241537554648       1.983878419821415
    63   3      5.9801445513348828      5.9280625593662073   -0.019075811543330042
    64   3      3.9326736086116587      6.0330025610532605      2.0761883444056877
    65   3      6.0427424563751782      3.9840891602066661      2.2851132534009189
    66   4       4.381440472097502      4.2958547807969545      3.9143688075905518
    67   1      6.0502610192482358      6.0545879019323277      6.0564090551371637
    68   3       5.859910483805491       6.121447744961718      4.0644865932723784
    69   3      3.9723902679902108      5.9879919050206079      6.3162310963044037
    70   3       6.047794815712022      3.9838469033190864      6.0689215074644824
    71   4      4.2765455820241955      4.4023717895668151      8.0654346069080791
    72   1      6.0801308988872824      6.0520601075493845      10.182082928189459
    73   3      6.2321235084450421      5.8619955017735039      8.1502480604400542
    74   3      4.0303289327926253      5.9975173657906735      10.122742826381801
    75   3      6.1044400823671428      4.0385146442698181       10.44873278692932
    76   4      4.5179772263321842      7.8610076524159735    0.094507997434523899
    77   1      6.0416335889792308      10.102870064753002      2.0046884863186833
    78   3        5.91737137927338      10.269398047416828   -0.059118740552862564
    79   3      3.9753577443704247      10.286249084554704      2.0046179022792598
    80   3      5.9552987828804298      8.0734553381866032      2.0222959616162965
    81   4        4.37904915678262      7.8438072089700759      3.7646170848832621
    82   2      6.0333317504391282      9.9596861616470882      6.0195709524014784
    83   3       5.960404176657546      10.039442902377525      4.1185301143210564
    84   3      4.0888342398941715      10.121645205435053       6.301830205607482
    85   3      6.1117307801189309      8.1006732007275843      6.3174458837237149
    86   4      3.6807210657412881       8.330867013449561      8.0566195885835583
    87   2      6.1168360559189914      10.102333501042647      10.080021390134432
    88   3      6.1944590094467289      10.329523507575519       8.129880523915606
    89   3      4.0964644210232413      10.117765934646799      10.056853833772083
    90   3      6.1949546687222581      8.1284014682939336      10.042836105400918
    91   4      7.8776154718437708   -0.050740022581672331    -0.31137563678535324
    92   1      10.054450048428862      2.0324629320549472      1.9679268699600796
    93   3      10.302973461222752      1.9958109120393286   -0.078756364211087115
    94   3        8.03736022862984      2.0625788281614295      2.1909718797360322
    95   3      10.397414254518539   -0.007333594901321145      2.0367866880713157
    96   4       7.795342140981198   -0.036776940167395841      4.0686559828411166
    97   2      10.100283712752789      1.9958499464843442      5.9592116478485018
    98   3      10.258128125102997      2.0451898461898708      4.0882831394546013
    99   3       8.144632202167676      2.0432997502645693      6.0498969846411361
   100   3      10.192373754594552    0.037753765961732272      6.0834925658153258
   101   4       7.739427118745672     0.12920627872280221      8.0685065359472183
   102   2      10.015868877305353      1.9036804105062743      10.149016559132807
   103   3      10.116258459575061      2.1173135581720093       8.163953693212612
   104   3      8.1433707809123987      2.1274951346511131      10.300825779318975
   105   3      10.130166744957997    0.029298647976341925      10.114401045069991
   106   4      7.8609380981460379      4.3810450183566028    -0.41304153742565008
   107   2      10.237289089374816      6.0590036799271552      1.8607924323818537
   108   3      10.093991594106511      6.0890379432185391   -0.016053488545198023
   109   3      8.1728281247672303       6.036946765322531      2.1850100371919789
   110   3      10.093807639647563      4.0854225963918278      2.1952930612559194
   111   4      8.0955052633646751      4.1226264965437238      3.6508132536630389
   112   2      9.9682307449632486      6.0419443831042834      5.9932744111401632
   113   3      10.238687702785702      6.0027808226012196      4.1201350271037853
   114   3      8.1112801205024319      6.0589818139084226      6.0939639709406368
   115   3      10.207116534613995      4.0618751577867567      6.1995104296662706
   116   4      7.7626680839545097      4.0256895869059761      8.0806405049636449
   117   2      10.239686603067158      6.0231381302726712      10.043920688026962
   118   3      10.051838182344827      6.1105450713945739      8.1435633198824604
   119   3      8.1844112500778916       6.051055610428663      10.407872130446643
   120   3      10.220997797141944      4.0776823102869768      10.255496079691108
   121   4      8.4021638793703577      7.9704621927620751    -0.44679859071521805
   122   1      10.152298946190927      10.040026884667425       2.028710628743144
   123   3      10.173991389376519      10.215324630704472    0.013804487383180689
   124   3      8.0862796601531421      10.157915145411794      2.1109773364803375
   125   3      10.151764634783206      8.0071303824628544      2.2255151073153625
   126   4      7.9484265955434976      8.0434586298134612      3.4555809219211464
   127   1      10.015900969708225       10.01758251533913        6.07392421404065
   128   3      10.211517884436795      10.164619817528015      4.0637373905216139
   129   3      8.0059261644950102      10.313036404297856      6.0542238345559394
   130   3      10.253741246416249      7.9987798446513283      6.0832348508627367
   131   4      7.7395946205216308      7.6966672277797619      8.0902541695368946
   132   1      10.097686020179493      10.073266238151293       10.16310993252447
   133   3      10.145850762360872      10.154778797819299      8.1250219453892072
   134   3        8.06797416200207      10.275653963158163      10.307417583895507
   135   3       10.06875243776337      8.0413803858780533      10.335009422905442
   136   4     0.22576062012719023    -0.17036921869777533      11.932359284297942
   137   2      2.1651159496976535      2.0309587527640178      14.184840111488361
   138   3       1.958336430032978      1.9536509464533471      12.238815410488053
   139   3   -0.096947631531678569      1.9597597531752566      14.139027309859882
   140   3      2.0009713998522032    0.031252327214739931      14.389231261349316
   141   4     0.33409148493341179     0.02588865395930455      16.211956060274002
   142   1      2.0523093501337928      2.0099957209063479      18.187532210875386
   143   3      1.7979126161618408      2.1343237556132917      16.155755945529837
   144   3   -0.068296116263667425      2.0675795676314226      18.329371264997974
   145   3      1.8459460829815004   -0.036083721847585411      18.123762358892566
   146   4     0.27206933388807786   -0.086438084399450554      20.032169576622113
   147   2      2.0461696040152675       2.088786734601972      22.058088614036766
   148   3      2.0527748941760353      1.8418996012671645      20.210645391405802
   149   3     0.03678630203498158      1.9316181440563018      22.371482613744877
   150   3       2.072016580427253     0.06935520230315588      22.482789385640583
   151   4     0.28406993925117141      3.9535923376686464      12.179966128840496
   152   1      2.0333372960542824      6.0242877961774193      14.180569680208578
   153   3      1.9633976486560136      6.2120432558393892      12.146901850552632
   154   3    -0.11952222908425714      6.2060156200303247      14.030117033207425
   155   3      1.7671214787899951      3.9784084382490623      14.140781924057238
   156   4     0.26453377486837898      3.9662362612000761      16.169796126589119
   157   2      2.1294638143713116      6.0292827628458125      18.159371963637501
   158   3      1.7268270308193252      6.0081954713752674      16.208625478661162
   159   3   -0.014765052579353089      6.0838834687818757      18.455869131446423
   160   3      1.8601355563506039      4.0784722323523921       18.23922449504899
   161   4   -0.023718350059961937      4.0896353930717879      19.806595959843815
   162   1      1.9698043023069787      6.0775458096864314       22.25947249015293
   163   3      2.1262502070539053      6.2355013474453012      20.169002693181913
   164   3   -0.070851155586171652      6.1632209806661642      22.194653131199658
   165   3      1.8911970395596456      4.0093530845117851      22.197273599533982
   166   4     0.31859005790897021      7.9277382461983548      12.304978103223803
   167   2      2.1604438317822168      10.115719108010977      14.210493008848141
   168   3      1.8889686363606291      10.093874185395327      12.213543443681273
   169   3    -0.11455948647114206      10.202262287574939      14.167991234785946
   170   3      1.8445577960863855      8.1527090233972199      14.265578429973774
   171   4     0.31269110768607794      7.9731785966130744      16.190113983297231
   172   1      2.0077612536411791      10.090561670042876      18.212662124520385
   173   3      1.8272318937748482      10.191738616048644      16.157874056627413
   174   3   -0.093699315387509599      10.150376085728231      18.226836164705716
   175   3      1.8545248555746867      8.0435089396630985      18.084269142319862
   176   4     0.24926728399312353        7.87235300803692       19.97968449856053
   177   2       1.995178151820814      9.9985263018651089      22.206068857151326
   178   3      1.8308529918873582      10.037513920139952      20.277477941198057
   179   3    0.033894192760651198      10.063031606739083      22.441917232816127
   180   3      2.2131504911185123      8.1233568382928762      22.333409367129846
   181   4      4.2931251340754075    -0.14897274129118407      11.964398118507782
   182   2       6.264286720878748      1.9804000028800131      14.143545909458343
   183   3      5.9108214900418794      1.8722295559243307      12.243245741546168
   184   3       4.036416753879891      2.1937640995164491      14.352278188127457
   185   3      5.9805017042709983      0.1018741966886217      14.452407575016688
   186   4      4.3384385675175006    -0.33804459272496812      16.186215403732771
   187   2      5.9510312191027888      1.9871597222751558      18.328326774629829
   188   3      6.1170928392837496      2.4244317375672471      16.158722411590347
   189   3      4.0853012909171769      2.1663183461891791      18.033984669299691
   190   3      6.0906378426202332    0.098915554299217598      17.973821251114618
   191   4      4.0290519271495588    -0.29251993339706189      20.218067533418782
   192   1      6.0389736490011554      1.9939445651767826      22.237363324625438
   193   3      6.0586087082517865      1.9380651954535932      20.198884272698262
   194   3      3.9790355871051157      2.0950174436434672      22.402355537432502
   195   3      5.9674426575347121  -0.0041943544850323684      22.580974063901319
   196   4      4.3309918947026409      3.8979320323961359      11.913386936890682
   197   2      5.9046796684733796      6.0909766007746429      14.195840022701018
   198   3      6.0028061702031685       6.422312962254721      12.244949413357824
   199   3      4.0445794854117478      6.0487974774373034      14.367481644848581
   200   3      6.1406434851903313      4.1011084091338557      13.930579385677982
   201   4      4.1340068704881601        3.88141413110823      16.292745204208991
   202   1      6.0610987905078408      6.0830602678038259      18.166351008691947
   203   3      6.3173808360628252      5.8540332626715532      16.146179741948949
   204   3      4.0361174393819397      6.0564963138143346      17.993880124727998
   205   3      6.3123754006846458      4.0265425351904485      18.295734674901784
   206   4      4.2031062508001664      4.3178759733769692      20.495831157241597
   207   1      6.0683147027276947      6.1329806017759623      22.236372174713178
   208   3       6.077882354046241      6.1761177360277602      20.182911766273023
   209   3      4.0254430902372205      5.9038153371654944      22.165476143261394
   210   3      6.1560305886563711      4.0475946688217253       22.12171866067348
   211   4      4.2832818056515451      8.1351658258831048       12.05334699375461
   212   1      6.0932414736959055      10.079281498448168      14.203950265743412
   213   3      5.8596574219552178      9.9227432553848747      12.130815547289544
   214   3      4.0328453630829157       10.12104300451257         14.222216488245
   215   3      5.9913771585512743      8.0540846064838245      14.567005506205883
   216   4      4.1926753025374923      8.1292243906614434      16.273129190251993
   217   2      5.8649107886489293      10.163280679065817      18.277572362673506
   218   3      6.0594102859902721      10.460258606460703      16.260746236809435
   219   3      4.0196922300992437      10.124750757960513      18.189871089163734
   220   3      6.0711243119300908      8.1767694360723233      17.861471125707926
   221   4      4.0808314383461379      7.7872643396147687      20.553815272310068
   222   2      6.1372178491508773      10.119311959085596      22.300254926467918
   223   3      6.1316027168578406      9.9063951878291103      20.226419733198632
   224   3       4.017300824236119      10.360784449828087      22.227868786179453
   225   3      5.8125065850807713       8.152757557141145      22.357570206365519
   226   4      7.9680871793551544    -0.31111693211050184      12.046475456114155
   227   1       10.10786351642925      1.9740343209164517      14.188511759000329
   228   3      10.418080980834063      2.0336969539397658      12.103875506300833
   229   3      8.1145251080307101      1.9844830255398815      14.130393006246694
   230   3      10.473209831352429    -0.07898389267218385      14.192533364997049
   231   4      7.9154270661984318    -0.37730418311308961      16.210522616035647
   232   2      10.029452232129493      1.9222292139958819      18.154728739522209
   233   3      10.272503136475262      2.0606849096522231       16.26455953408529
   234   3      8.1436508914356516      2.0012034636891145      18.204126250450692
   235   3      10.305984428311922    0.046357490619456279      18.313417160358863
   236   4      8.0677519531892425    -0.33292142120120222      20.195093141556129
   237   2      9.9931546068942581      2.0486925129665425      22.249542465032292
   238   3      10.316137199108768      2.0762973509727347      20.220910588701116
   239   3      8.1155815816191765      1.8329062991303682      22.266028624313208
   240   3      10.420482714751431    0.073649025527286527      22.250225028666247
   241   4      7.9452419017783225      4.0638019586801359      11.856275621771655
   242   2       10.00843254654794       6.038818848859524      14.167325944630594
   243   3      10.324060504498815      6.1582162118003856       12.24591733954896
   244   3      8.1394063963973782      6.2057528686649714      14.062288070504174
   245   3      10.227595647246924      4.1397728261674764      14.201465571732465
   246   4       7.848302771409311      4.0577833793886162      16.397157658228529
   247   2      10.205280614662605      5.9593273197540979      18.256698708546523
   248   3       10.12544208652017      6.2319608235174364      16.172386497509986
   249   3      8.2047865069119847      6.3056214751305149      18.206727861842158
   250   3      10.068517211255292      4.0689238807340162      18.239954808719474
   251   4       7.688936634964687      4.1904234532571429      20.302679634077325
   252   1      10.139586866821601      6.0296409117904215      22.180744902613849
   253   3      10.176723035595341      6.2937385686155434      20.160270731889042
   254   3       8.097026278407748      6.2437394228015055      22.268089482545143
   255   3       9.991297588992321      4.0198839903422572      22.309643216877113
   256   4      8.0867671192075612      7.9542569035665096      11.849761837615766
   257   2      9.9733496516701496      10.106002907859605      14.161197209121527
   258   3      10.280315274829624      10.202860821267922      12.234702541100633
   259   3      8.1235549023811604      10.105141062624845      14.186411632501835
   260   3      10.341045408885384      8.1482881178053912      14.212247824349552
   261   4       7.856828287030587      7.9515112096783351      16.319484818326927
   262   2      10.020785150951099      10.107158875040948      18.258662239613944
   263   3      10.295195528047094       10.21826814470594      16.189282524494534
   264   3      8.1497959939155589      10.058019226515706      18.136237428188288
   265   3       10.33274221391444      8.1899996095346008      18.115347693971579
   266   4      7.9140580338829292      7.7132949416130971      20.207004762270497
   267   1      10.060371531898936      10.150644767548989      22.199467149331635
   268   3       10.28100906250477      10.066195729432703      20.157923527498266
   269   3      8.0401260002647312      9.9749153732756177      22.391638480424007
   270   3      10.310779122858783      8.1025196856645341      22.327169990464728
   271   4    -0.17587539436138669      11.785346151458036   -0.091346003444036303
   272   2      1.9790602412508467      14.183744812049275      1.8867276254838852
   273   3      2.0285062463197079      14.181689681232559     0.03452814319157145
   274   3    0.065955153037699735      14.218103171759678      2.2325793089764132
   275   3      2.0949011844202565      12.242058443882325      2.1990692437135522
   276   4    -0.04587730254743614      11.922384601644417      3.7874693013042884
   277   2      1.9904959152350179      14.069843911872956      6.0457970867091566
   278   3      2.1660052266904417      14.288174099989915      4.1570108395005896
   279   3    0.071280904486563976      14.251520988972443        6.17932813539311
   280   3      2.1584710619817926      12.204140086697544      6.1088958168891843
   281   4     0.15923692268316636      11.723395842281265      8.1098377662009504
   282   2      2.0289134902610115      14.066984777909505      10.205165254520999
   283   3      2.0882531154937114      14.285463446131681      8.1211774812174067
   284   3    0.024539159290421542      14.218235817095048      10.089184672590596
   285   3      2.1013956990091653      12.193053630300268      10.217407931033534
   286   4    -0.11841474023823555      16.097717372655875    -0.23166335913619254
   287   1      2.0256730582703804      18.203977539468902      2.0009224346900005
   288   3      2.1132792497538078      18.412625919842736   -0.023159674669202494
   289   3   0.0036764022582358698      18.255347988231126      2.2679801310943262
   290   3      2.0705755459158284      16.157896744996183      2.1975934467821707
   291   4    0.001725098946105454      16.296867813654874      3.6828072085890269
   292   2      1.9379214085810792      18.179202985238888      6.0341630285191501
   293   3      2.1597552532755366      18.276371315702004      4.1415107228916836
   294   3    0.047847911797111717      18.384144722015385      6.1442031879234538
   295   3      2.0470841760466918      16.273249195709134      6.2215761124366873
   296   4    0.019588076915101081      15.965288398777181      8.0911484418217761
   297   2      2.1137195993911138      18.230832333961082      10.065518125198381
   298   3      2.0875396603631815       18.43133366563605      8.1207183320424559
   299   3   0.0090731764034922731      18.492767928507696      10.153436326351329
   300   3      1.8911792974351291      16.282764829852312      10.057757538161496
   301   4    -0.17505494745421707      20.450842944899147    -0.19808161644521879
   302   2      1.9251393723493486      22.240853932678242      1.9192588119647263
   303   3      1.9665536483738182      22.221025468490286    0.025895790444390429
   304   3    0.027095491125390565      22.303716509896731      2.1716103192028098
   305   3      2.0462563608410997      20.327938152501542      2.2192184165839857
   306   4   -0.084934240539132691      20.154929335429923      3.7189290645034849
   307   1      1.9982001603454296      22.299911991263215      5.9881543502807215
   308   3      2.2362456271115838      22.408789058319101      3.9827627689422558
   309   3   -0.016276858161238555      22.295848634232275      6.2169826869664533
   310   3      2.1812833863826659       20.24335075843728        6.09371651314546
   311   4     0.21908634613926098      20.488124344470712      7.8405886274641619
   312   1      2.0398093526381662      22.286167797701946      10.126367805285248
   313   3      2.0638616780247458      22.197954553812909       8.117959641533858
   314   3   -0.041869488307369605       22.24189114815487      10.360244578639794
   315   3      2.1294549961619516      20.253240266951124      10.375998060007136
   316   4      3.9945156325448572      11.828616913381927    0.032085433329387736
   317   2      6.0401504672946471      14.022528918445184      2.0109719542550817
   318   3      5.9614763681273546      14.159056166285943     0.11689881202088223
   319   3      4.0622986767290552      14.248604967756036      2.1783480678007283
   320   3      6.0666858173859426      12.176700492051204      2.1930289855851579
   321   4      3.8871043921961053      11.809300904344413      3.9134686899577935
   322   2      6.0851146512687091       14.00596530045299      6.0723634733456651
   323   3      6.0350689482454376      14.456194124806293      4.0694525725669974
   324   3      4.0743844156220721      14.421498020874902      6.1484319999670998
   325   3      5.9447288249887738      12.156033726520429      6.0321705604818883
   326   4      3.8162215063441676       11.78960691179147      8.0958168259872654
   327   1       6.058412466011422      14.118778023522294      10.074280061422307
   328   3      6.0819860536910291      14.333178670889778      8.0155992546329831
   329   3       3.992745671128457      14.415564791036896      10.081856351264287
   330   3      6.0340696995173451      12.123460536020323      10.478009938009498
   331   4      4.2155987681152647      15.895735168870633    -0.36455483408844602
   332   2      5.9941047052192209      18.141368846577201      2.0454076085244686
   333   3      6.0112588949406991      18.550377415336012    0.069970572243897175
   334   3      4.1075293738367105      18.464833467409971      2.0888199438155182
   335   3      6.0361467202221437      16.259959155404882      1.9524961988290845
   336   4      3.8777098298046306      16.014017031072562      3.9065903972603495
   337   2      5.9700082193260036      18.264177710268438      6.1299474408732948
   338   3      6.2537534598824225      18.279787105685852      4.0379089016735392
   339   3       4.090735144358403      18.238531179983788      6.1119165777368476
   340   3      6.3021033565777094       16.32164782382257      6.0989321413094508
   341   4      4.0638892251652639      15.868497789974379      8.1320429300381836
   342   1      6.0869612017430699      18.241410287023768      10.080885585530664
   343   3      6.3025158723598373      18.320137557936345      8.0451179953455743
   344   3      4.0349333568145846      18.218972063381702      10.263940784215595
   345   3      6.2241680946661573         16.210618120023      10.107262884398494
   346   4      3.9802284342468344      19.943614827219879   -0.050132195234359501
   347   2      5.9734880395980712      22.269169575706535      2.0126111107504419
   348   3      6.2808723138183877      22.192112452535955    0.024655598661727781
   349   3      4.0772078077904128        22.3303985000578      1.9531240872420761
   350   3      6.2708592995818773      20.364051072560851      2.1549923787445024
   351   4      3.6727975686207959      20.232016552896926      4.0199698117670843
   352   1      6.0894227476723817       22.27761061621537       6.036998693537047
   353   3      6.0319828351999156      22.580343176927052      3.9694627167358991
   354   3      4.0833888558801421       22.42992011935479       6.181636121792744
   355   3      6.2001554309954718      20.237503325278588      6.0073181894467567
   356   4      3.7939998484915956       20.59194927376517      7.7988948337002721
   357   2      6.1035461560370123      22.260214969734101      10.025811970574026
   358   3      6.2742042911999363      22.165944994469115      8.1196827008120298
   359   3      4.1249939934161723      22.297023894368948      10.195978144788047