(written by ASE)

1080 atoms
4 atom types

0.0      24.299999999999997  xlo xhi
0.0      24.299999999999997  ylo yhi
0.0      24.299999999999997  zlo zhi

Atoms # atomic

     1   4    0.087906074250447788    0.085395343292446441    -0.42403690885461415
     2   2      2.0999890319431684      1.9367992232108939      1.9289215528628063
     3   3      1.8207703373818553      2.0960786811036454    0.073601285035758066
     4   3    0.033325755948285622      2.0242685849655913      2.3418566238171983
     5   3      2.0202577738916738    0.011847348541990302      2.0340649326215252
     6   4    -0.14921999265261926    -0.18390624675066602      3.7763149028071759
     7   2      1.9743648857381761       2.055904957536248      5.9773777987527197
     8   3        2.10745380477253      2.0065272553375966      4.1030845524536002
     9   3    0.028645882087712519      2.0840887873878189      6.0579428776645159
    10   3      2.0179950247954164     0.06546472425508898      6.2820023906091222
    11   4     0.23340499747635579     -0.3323811010270849      7.8982783607976268
    12   2       2.140709513332848       1.985364227293394      10.079323061079634
    13   3      1.8598254098763789      2.0712477180183102      8.1862156970414333
    14   3   -0.065964576718167564      2.0865257172130196      10.418113484650378
    15   3      1.9021623483104717    0.070317473480188131      10.189620695242436
    16   4   -0.047379631594071429      3.9088837853224101    -0.42994987792418438
    17   2      2.0096619763128514      5.9108857366063923      1.9408669071771143
    18   3      1.9087632965142491      6.0635165636609001    0.062786121948148144
    19   3   0.0037859477290563006      6.1466467390846899      2.2839211360276011
    20   3      1.8729906541626353      4.0212192470881591      2.1926970992678023
    21   4   -0.045950023482114563      3.8291502147101366      3.8687358203374775
    22   1      2.0172968790007455      5.9929692705285751      6.0738870789151997
    23   3      2.0763241651541615      6.2540819796598948      4.0367459155975309
    24   3   -0.061008708817365101      6.1297050071765495      6.0650346690738033
    25   3      2.0512576865339929      3.9724803146758938      6.2598643498455528
    26   4     0.33497492551890473      4.0871279398891032      8.0767318978938079
    27   2      2.1515824083499377      6.1362532072338372      10.211248928766203
    28   3      1.8365566355939615       5.989318463222113      8.2109871774799554
    29   3   -0.073219209284177036      6.0574299605506621      10.259812851722076
    30   3      1.8460324847493916      4.0343972351173303      10.235578149056355
    31   4   -0.045357228375832948      7.9804509426894299    -0.39039976703169177
    32   2       2.004845302590113      9.9546740705993191      2.0055830338046201
    33   3      2.0106588258204416      10.341071679614046    0.064850141797970523
    34   3    0.016911341794492291      10.271667743573525      2.1039341190635343
    35   3      2.0113544961839418      8.0871259504705737      2.0066444504233072
    36   4      0.2437372262846644      7.7503233785972663      4.2378412299664996
    37   1      2.0070098699541452      10.086013597616498      6.0702634839912539
    38   3      2.0343214721729894      10.215810171966401      4.0071247105530521
    39   3    -0.04956459115914872      10.344271943146696       6.109247580910222
    40   3      1.9750698752021494      8.0745348125059095      6.2427445472885621
    41   4     0.40591965421071352       8.007652828548375      7.9586806074930552
    42   1      2.0350210692817554      10.051227092427965      10.155046260496199
    43   3      1.9419566786332898      10.274610002978619      8.1322257372326483
    44   3   -0.088190323510375535      10.354773975785426      10.214485929589227
    45   3      1.9080798824802783      8.0347800074744615      10.107680833578147
    46   4      4.0105209356962677  -0.0048293178604117458    -0.37146949829383791
    47   2      6.1693546367919518      2.0040339648935315      2.0354769907839039
    48   3      6.1177174782192969      2.3338484428155053    0.072000320727180336
    49   3      3.9883789902722784      2.1097593235171574      1.9633664389357857
    50   3      6.0652523239586618    0.054780279548269105      1.7913474271813716
    51   4       3.976584731725346    -0.34712877067255116      4.2268843894168935
    52   2      5.9766547349141517      2.0031907954303252      6.1453843844572429
    53   3      5.9785603957861477      1.8195544267879598      4.0460521368999753
    54   3      4.0556085678232137      1.8861691150536959       6.234660558303589
    55   3      6.3330046013606838    0.048682390408262784      6.1651070352659119
    56   4      3.8080254427887343    -0.31745163445627073      7.8912686012272584
    57   1      6.1036133781252193      2.0416262023273144      10.092756114889093
    58   3      6.3033640876181503      2.1351100070548767      8.0334693991932475
    59   3      4.0100093724577981      2.0748618235764154      10.167216767184186
    60   3      6.2423563080264222   -0.016616984404378393      10.061587685268671
    61   4      4.3450707529519121      4.0233124133116878    -0.36801411963717306
    62   2      6.1577044885948427      6.1631191323245869      1.9351042349877734
    63   3      5.9991851365158642      5.8480487600168027    0.040082545534148334
    64   3      3.9640846717750997      6.0258252688080161      2.0632974970584819
    65   3      5.9571943709532844      4.0231569594308718      2.2817666208732073
    66   4      4.3245919080073447      4.1777675698898742       4.004169244164431
    67   1      6.0739700442317499      6.0990467002858484      6.0471223733290076
    68   3      5.8612418456413851      6.0712675931364464       4.001211974380241
    69   3      4.0400521529169806      6.1571357737520547      6.2216693208971874
    70   3      6.0045185579065636      3.9653256856026533      5.8831967097294138
    71   4      4.2476068984027409      4.4600632442259496       7.921046473561244
    72   1      6.1086177233944365      6.0653688709217244      10.108953547797149
    73   3      6.1392040259905754      5.8044795092403243       8.102840297252186
    74   3      4.0265319860723503      5.9856529234012594      10.098151685476115
    75   3      6.1105019161774523      4.0501076091311115       10.48389070390748
    76   4      3.9989926670497344      7.7550652102719502    -0.33734279119546856
    77   1      5.9985410106106913      10.053796769282116       1.986913477691568
    78   3      5.9716141249765258      10.318444132671555   -0.066189379961543671
    79   3      3.9471930999181355      10.340886440937028      1.9951933743852637
    80   3      6.0276299185299047      8.0307319752562236      1.9040150783256102
    81   4      3.9804625395289661      7.6670926135973136      4.1592097495342655
    82   2      6.0513080816095437      10.025528829547047      5.9419271601465837
    83   3      5.9401563471906522      10.069243514454383      4.0727390788380182
    84   3      4.0880284697789291      10.084168036226234      6.2772557494288641
    85   3       6.108462821722636       8.132918386606347      6.2664014460873307
    86   4      3.9249175592218433      8.0087609596592753      7.6989356397446898
    87   2      6.1172675525228239      10.050329832517043      10.012887330979249
    88   3      6.1621442920705043      10.341897373821846      8.1113012070587693
    89   3      4.1022046288492557      10.208766646961505      10.096180105168418
    90   3      6.1314808358126687         8.1264500814664      10.151532216185879
    91   4      7.8991942134257336    -0.14166308146584408    -0.25397175340024247
    92   1       10.10215240518359       2.018731991447877      2.0229219569711212
    93   3      10.087531041618822      2.3581839836630309   -0.061349009922906067
    94   3      8.0601364831725224      2.1134735261466138       2.021760299595222
    95   3      10.461783167284791   -0.025062913950059974      1.9766085877579278
    96   4      7.8327546895526909    -0.13331601559468287      4.1891140715252959
    97   2       10.06036827580095      2.0311961006728527      6.0131997972146873
    98   3      10.466358122161335      1.9597470075004768       4.091562364110275
    99   3      8.1499817416195466      2.1259154433233682      5.8779292159583383
   100   3      10.192194932936312    0.027822883655784194      6.1179311875085123
   101   4      7.7820960093738742   -0.015894294042799774      8.1498350548468892
   102   2      10.039121293877498      1.9144166271957681      10.086275698418392
   103   3      10.048905576647714      2.2106868024731861      8.1017543979325293
   104   3      8.1704951651285977      2.1556280739682974      10.321944942124997
   105   3      10.028061118760164    0.049351988106569281        10.0551732359509
   106   4      8.1347464236554607      3.7642701600229724     0.05091144708513521
   107   2      10.333214772889052       6.056913772278083      2.0543071679356673
   108   3      10.002867409709129      5.9516478504006045   -0.042180303121969465
   109   3      8.0511833405387172      5.9986239261950329      2.0952083598182343
   110   3      10.204778044540772       4.097306179724268      2.1404787185668632
   111   4      8.0358116940463304      4.4441963426270394      4.2145196991294522
   112   1      10.138180362968892      6.0466305291058546      6.0291422078916499
   113   3      10.131614069951723      6.1621085203492241      3.9829825775345653
   114   3      8.0993429250876634      5.9063258378183914      6.0961941100871071
   115   3       10.37810516519782      4.0018645379247033      5.9444453468886476
   116   4      7.8664893976418355      4.3179954265848934      7.9633168195948443
   117   2      10.234037162115113      6.0247759390831872      10.012530606100166
   118   3       10.03443993614998      5.9858675615811894      8.1356058024197164
   119   3      8.1929502287582103      6.0205590885276354      10.382704755995816
   120   3      10.251542733448321      4.0863979751782997      10.355154543923728
   121   4      8.3542991405539766      8.4666814051216317      0.2118060508115015
   122   1      10.218314599999646       10.10496673136681      1.9955655649233226
   123   3      10.060284685311018      10.200720435063632   -0.025021127496892174
   124   3      8.0630327040832324      10.064949815153165      2.0448330506010417
   125   3      9.9562478304604021      8.0360510543348003      1.9119181842562991
   126   4      8.4014425223313083      8.2915253039101149      3.7927344035611883
   127   1      10.040340013749461      10.100251859136241      6.0494026075284797
   128   3      10.114231319177559      9.9873545943531994      4.0279548278942814
   129   3      8.0064827453865384      10.251001767862949        6.09243461324062
   130   3      10.064109949528181      8.0746638575639267      6.1679847177375802
   131   4      8.1714201254647989       7.833939544332738      7.6214023831399746
   132   1       10.10167986145472      10.091989475728775      10.152860953489037
   133   3       10.13141448004157      10.246231359087444      8.1239846365520521
   134   3      8.0594760164816748      10.237723071990096      10.316584123740453
   135   3      10.067712633023964      8.0419171468716684      10.243364679047891
   136   4     0.17095445193473294    -0.14094356020989263       11.88342271329487
   137   2      2.1607700005561563      2.0626476205614246      14.195998542326436
   138   3      1.9997609507322422      2.0072855316842442      12.208885012859321
   139   3    -0.10479895595632137      1.9773291912075273      14.058828950833254
   140   3      1.9355133416547614    0.015609930437518734      14.348706667526173
   141   4       0.306856985275898    0.055366770238217788         16.210144526213
   142   1      2.0939719671824348      1.9978218471159985       18.17538337262598
   143   3      1.7137375511284378       2.069623682211172      16.141349660095294
   144   3   -0.060622246157485259      2.0250206567116749      18.402935090532107
   145   3        1.81386461665701   -0.057463510449507177      18.123069842805734
   146   4     0.27988834293793136   -0.029567438920514041      20.015095591196452
   147   2        2.04905869999831      2.0921294117671283      22.058019114188927
   148   3      2.0963318428105917      1.8438492097337054      20.210412976773561
   149   3    0.035895513162853582      1.9400870531580534      22.316215623994232
   150   3      2.0496145044361009    0.069567833491792977      22.474514874149953
   151   4     0.27623625042380318      3.9600366838506207      12.148773003976924
   152   1      2.0467391897400002      6.0192598646955231      14.191866451281328
   153   3      1.9365357131311693      6.1062076942765886      12.147560576824999
   154   3    -0.12763131062510846      6.1565107528625962      14.020922535932449
   155   3      1.7854183488144673      3.9762690379693058      14.165496865181519
   156   4     0.27569102529031209      4.0063869303408808       16.18121570250252
   157   2      2.1287086466425915      6.0361231990509321      18.165370037942346
   158   3      1.7091929507865924      6.0346585762812825      16.213827964093586
   159   3   -0.024571027971072138      6.0257031318740246      18.453946601907706
   160   3      1.8994005058081447      4.0704261565812194      18.207323766842428
   161   4   0.0015026506768542705      4.0776163145339162      19.819612194142255
   162   1      1.9844476949056011      6.0190805429842431      22.212749459094262
   163   3        2.08170352750252      6.2589317431333793       20.16691945288531
   164   3   -0.063237273716930414      6.2142676705335251      22.254602144781618
   165   3      1.8982623500147522      4.0000805311148175      22.250653946032429
   166   4     0.32362401114033712      7.9354293212673417      12.295533852307532
   167   2      2.1705219294971498       10.12091737389035       14.19329173710994
   168   3       1.911765473839145      10.128782408845726      12.214381423896516
   169   3    -0.12084401784114439      10.246839307647681      14.114984369307155
   170   3      1.8173194468608991      8.1489238889705948       14.22845691310043
   171   4     0.30108535117843133      7.9902787672643605      16.164871020184034
   172   1      1.9906773854642481      10.086635399870319       18.16991593695036
   173   3      1.7485702101257226      10.151074097498949      16.138247592727819
   174   3     -0.1027126592522816       10.25258616687641      18.252123197944197
   175   3      1.7650094774489524      8.0449140616877397      18.087127216979809
   176   4      0.2025367493290918      7.8444279545019926      19.940223504995632
   177   2      1.9624468154799501      10.103495891430416      22.109846498733443
   178   3      1.8377137651658442      10.035094966343705      20.237168050347773
   179   3    0.010382796191045587       10.07672020401297      22.479181329223884
   180   3      2.0707780346381313       8.168440544688373      22.481630012755794
   181   4      4.3159635425352629    -0.11404493631883432        11.9608419436047
   182   2      6.2256239203012766      1.9681617696190326      14.140351072663258
   183   3      5.8712258017867835      1.8495900841182009      12.234528723764496
   184   3      4.0237742238894603      2.0871462483751331      14.367208133489484
   185   3      6.0329447859359036    0.084650419333643534      14.478213374660173
   186   4      4.2990971844989181     -0.1916302807516001      16.306603507129232
   187   2      6.0792852156731678      1.9602364425177157      18.385762196306125
   188   3       6.161776835919297       2.384979425399572      16.143210038663113
   189   3      4.1134700717887904      1.9591649280615295       17.92852254388929
   190   3      6.1133491012750145    0.047511873848614904      17.931464273939245
   191   4      4.0360604882173652    -0.26601438026186647      20.237780890390294
   192   1       6.065108449558636      1.9786761260988703      22.298128474091563
   193   3      5.9971338882866858      1.8400005336605103       20.25536787585725
   194   3      3.9744615586730094       2.035228694205828      22.482671181437983
   195   3      6.0172082370641515   -0.004504012882666975      22.623099905225249
   196   4      4.3888146650457518      3.9592054998057411      11.922051928873461
   197   2      5.9278869795466482      6.0273947869533933      14.238394122669085
   198   3      6.0091399640009895      6.3601561849497914      12.260984448042187
   199   3      4.0496686150735233      6.1529438306297255      14.385579356274018
   200   3      6.0227783566178896      4.0751418414423259      13.920788302066358
   201   4      4.3038687107446867      3.8538496698691302      16.491119967826211
   202   1      6.1056779373018566      6.0249402915887398      18.175004385153848
   203   3      6.2970330131840315      5.9269388724912391      16.165324161950306
   204   3      4.0244916614174615      6.1617543725194359      18.000429448392463
   205   3      5.9073735611617746      4.0043043007558063      18.362578177451347
   206   4      4.4385668612708402       4.298589182034898      20.385944035335445
   207   1        6.11732610159478      6.0906217987280105      22.295595604340932
   208   3      5.9351769943571488      6.2718177303688707      20.192908481812761
   209   3      4.0201934024523771      6.1106337502189119      22.274930957883651
   210   3      6.0281738727010978      4.0429726453604413      22.055493994862633
   211   4      4.4254606490514883      8.1327779020850297      12.100803344666735
   212   1      6.1019487584192884      10.095788717762003      14.212888342727751
   213   3      5.8714561074507703      9.9939308197522383      12.152990860487153
   214   3      4.0357196644360869      10.082713833944149      14.299455381939477
   215   3      6.0242618053771446      8.0661775163896348      14.523476289565869
   216   4      4.2057312432629184      8.0540112459398827      16.153894449294739
   217   2      5.8342660775211579      10.170547834051931      18.235788049988873
   218   3      6.1426023728785095      10.421234557059515      16.276395257284179
   219   3       3.993081791301647      10.155280757867406      18.140646091819441
   220   3      6.1281801875142987      8.1962362148059391      17.954489548109347
   221   4      4.1435659730640548      7.7542729003991386      20.414033168052054
   222   2      6.1685021298284859      10.076150274358481       22.33771744871494
   223   3      6.0350079136923727      9.9857338058642018      20.226585171977874
   224   3      3.9766621087578553      10.307179488958907      22.290352555834151
   225   3      5.8506697614214707      8.1626630138914766      22.338333764083391
   226   4      7.9756453767146853    -0.27986071181578204      11.965684524474845
   227   1      10.075693555675779      1.9977274044618574      14.144654570902222
   228   3      10.465903302459042      1.9932523903982269      12.084451545596391
   229   3      8.0878441417556939      2.0840805540276324      14.120928561107108
   230   3      10.367561381106198   -0.080744254464129708      14.259507043138377
   231   4      7.8518975549660723    -0.33654131670936976      16.232352467799554
   232   1      10.067814555733904      1.9791313329851474      18.264836409346092
   233   3      10.164845890803191      2.1558274884394217      16.210472266504357
   234   3      8.0321220955923707      2.1292297599626342      18.205368615032132
   235   3      10.315970661527919   -0.055182111282206257      18.199653763208882
   236   4      8.1769449102230798    -0.36886588004126047      20.195875305660692
   237   2      10.158994833552299      1.8619102909256591      22.289160851060785
   238   3      10.337250086727549      1.9726100904343913      20.307725539292388
   239   3      8.1786280336322807      2.1362146801526869      22.256522616282716
   240   3      10.237230164426919    0.022007193535163758      22.455778351407226
   241   4      7.9779772813907321      4.0851592893202149      11.824761355100964
   242   2      10.001429955937622      6.0727273745015378      14.164839505549851
   243   3      10.295830341271381      6.2490752392195565       12.26031438162881
   244   3      8.1316901705347213      6.1830641848629808      14.102392197335808
   245   3      10.258789680809082      4.1613154982077303      14.133106327412719
   246   4      8.2168629689635591      3.6433984223987497      16.351968100363067
   247   2      10.146444287624339      5.9498653938047861      18.267542023470988
   248   3      10.134439068601097      6.1304835014226544       16.21478157026592
   249   3      8.1997357203400885      6.3034452568188897      18.298934925346931
   250   3      10.098664936492828      4.0913012699561193      18.367498831088263
   251   4       7.944175154928268      3.8535191049403346      20.555699919151184
   252   2      9.9993283520251008      6.0912443576133404      22.336789189926971
   253   3      10.259049329735575      6.3475390480187368      20.217220441021126
   254   3      8.1350939772279389      6.1922812445716842      22.053282840969704
   255   3      10.055880744083536      4.1610866756304272      21.962742354365808
   256   4      8.0978673986329479      7.9632448284149389      11.783422423444254
   257   2      9.9758489541744026      10.107343586460429      14.158397568073285
   258   3      10.291207187753013      10.112100069384741      12.251396295558788
   259   3      8.1316457828244229      10.145932763046535      14.184881823380127
   260   3      10.275826388835899      8.1519867001459243      14.348985492469494
   261   4      7.8065132589925925      7.9227244781929951      16.269132023440861
   262   2      10.009120722480851      10.114827689173017      18.230916775993045
   263   3      10.219513485785205       10.34120104940574      16.234096233198184
   264   3      8.1510210673798138      10.135093951437607      18.284336082226911
   265   3      10.303843168594733      8.2128848032781487      18.111854939749236
   266   4      7.7696138515068345      7.8101438584895115      20.131100911092748
   267   1      10.061051753985932      10.109959050635565      22.192453468146468
   268   3      10.411367983010157      10.053964808137076      20.159574060885472
   269   3      8.0415257137859655      10.038092481211875      22.260894204510556
   270   3      10.394475427265954      8.0565285872515489      22.319016036703569
   271   4   -0.063410010058218821      11.865978325763683    -0.21785459726168702
   272   2      1.9689593038799775      14.140104824589184      1.9206355998739708
   273   3      2.0934539654829183      14.217275203594834    0.042889798100408195
   274   3    0.071893001257897202      14.358713452911063      2.1692404321722303
   275   3      2.0039985266798102      12.239147714562066      2.2077729729073146
   276   4     0.05339277581562861      11.818175831449095      4.0219900202708745
   277   2      2.0202856655700869      14.081028878184533      6.0408870186669601
   278   3       2.133914193392684      14.363863647337071      4.1254685194494938
   279   3    0.088601691739492186       14.25022090142151      6.1708365477982623
   280   3      2.1664380795489895      12.214324106564385      6.0611958111019364
   281   4     0.14989474834435529      11.748902771837361       8.109267975123517
   282   2       2.040698796227967      14.065533457139754      10.196607544557653
   283   3      2.0774199069668446      14.287261448054059      8.1098057988870362
   284   3    0.025780928164188543      14.239789349755165      10.076294871282025
   285   3      2.0645290959101992       12.19224674472439      10.213319976882858
   286   4    -0.16414520045395653      16.110617394861354    -0.17661857348646615
   287   1      2.0170616018440581      18.214589991592739      2.0194699025593472
   288   3      2.2110981330799908      18.278188478510575   -0.024230310828581493
   289   3    0.007104923214468325      18.192665348172241      2.2775170093753418
   290   3       2.276230717226615      16.177593609744275      2.0450524030180754
   291   4    -0.08837869000033434      16.282179550222278       3.746669954964382
   292   2      1.9622269915413246      18.176306502433757      6.0170297976033922
   293   3      2.2184346752094837      18.239404567505051      4.1285752292488542
   294   3     0.06591619553889301      18.402780575689864      6.0968232970509773
   295   3      2.0486992874177843      16.279237668858716      6.2317991975923217
   296   4    0.051468406384779168      15.956747459861644      8.0911491309312158
   297   2      2.1126019486180443      18.225513560188006      10.056108203797121
   298   3      2.0502542726980564      18.426063736592738      8.1169372751085476
   299   3    0.014518065349120007      18.477382256048632      10.176509973426773
   300   3      1.9056462273957435      16.279010474824506      10.061685551106748
   301   4    -0.21080597915623589      20.489348405028597    -0.15391952483574964
   302   2      1.9372516593738305      22.214340321716371      1.9194999417163534
   303   3      1.9682607210434646      22.202756393718385     0.02869301735877075
   304   3     0.03731382796726404      22.314000966757195      2.1648792067902383
   305   3      2.0170152394370664      20.296720526286169       2.214616663555121
   306   4   -0.075101791208784699       20.14109410596776      3.7085375925005253
   307   1      2.0044980379314303      22.278610069171826       5.960786143898857
   308   3      2.2595440767043566      22.377621898737466      3.9711845965115806
   309   3   -0.017954338936771862      22.260180118399148      6.2005030016752549
   310   3      2.1867711936800807      20.237761396786794      6.1139010027768261
   311   4     0.25717091471251652      20.426370811527541      7.8341812459190834
   312   1       2.048721346900749       22.27407954635872      10.135934015885278
   313   3      2.0338217748083518       22.25312991953119       8.116080832770189
   314   3   -0.044534114859478717      22.275893208065156      10.328957827217371
   315   3      2.1233647895351475      20.253112759560032      10.352965066065583
   316   4       4.010571827650228      11.812940330444604  -0.0058811935436992478
   317   2      6.0527468913335571      14.018925796149306      2.0609554264973413
   318   3      5.9907452058896027        14.0677753966312    0.033528438590364855
   319   3      4.0571038425365344      14.164847384686853      2.1412465737699939
   320   3      6.1126154179462455      12.165754746744362      2.1781718394965863
   321   4      3.9175754541721166      11.794407543487155       3.908203563163295
   322   2      6.1103348532457913      14.033890532057553      6.0586865408876989
   323   3      6.0059656493331088      14.397548214782281      4.0420913980351978
   324   3      4.0626247176873518      14.419448612490058      6.1341997528059853
   325   3        5.92533342532586      12.162626183272245      6.0175869852594381
   326   4      3.8255013638050115      11.694300075918367      8.1015725641295688
   327   1      6.0711365010321261      14.103923715762877      10.064976142466124
   328   3      6.0807349849920547      14.320930696672711      8.0075357321068363
   329   3      3.9950194308078775       14.38773912138738      10.067967734947178
   330   3      6.0736467213215288      12.116782449838679      10.449381981844221
   331   4      3.7289643787365687      16.195134234165479    0.012481611242013461
   332   2      6.0387586767503034      18.120969980252369      2.0353332070958539
   333   3       6.018006867790695      18.563216342082992    0.068975228382901543
   334   3      4.1328283858750678      18.528610482920403       2.067662724233915
   335   3      5.9191353741620896      16.247310514853119      1.9138697199914485
   336   4        3.89825478604177      16.030944366017923      3.8875081905181794
   337   2      6.0003810173930541      18.196035356625657      6.0898366472940806
   338   3      6.1814011971010254      18.301631147004038       4.041380001852402
   339   3      4.1017669423014693      18.260064405820835      6.1668154656479208
   340   3      6.2229889869534842        16.2753129351137      6.1180624868238205
   341   4      4.0927276441681517      15.865208679401922      8.1158100592018769
   342   1      6.0937888361256149      18.232747255234205      10.073937307183225
   343   3      6.3330837614995845      18.270443809172946      8.0419121700426199
   344   3       4.035723186634554      18.227800871100698      10.236327080654583
   345   3      6.2026449085606057      16.201251063748561      10.121457329953053
   346   4      4.0193947696806722      19.942738030345048   -0.072166076907351842
   347   2      5.9892347136354056      22.259629465230173      2.0053364196349071
   348   3      6.3070860388842718      22.182684377346394    0.023535091848754127
   349   3      4.0896833645164579      22.269299065005683      1.9434057775886353
   350   3      6.2927257261498477       20.37764656752012      2.1663353084060701
   351   4       3.734806208570927      20.181401922371933      3.9471570772660804
   352   1      6.1014633303938384      22.251758570160479      6.0387692359624214
   353   3      6.0268775743352077      22.604219513352781      3.9616709129304857
   354   3      4.0935543947248769       22.43474030793584      6.1905595527985291
   355   3        6.17048009707114      20.227531130035658      6.0660852663176827
   356   4      3.8636453976572711      20.541082125415841      7.7282306495470738
   357   2      6.0728179667235098      22.228516502177854      10.052671916793653
   358   3      6.3005666435730721      22.243962859544034      8.1260552053152058
   359   3      4.1143400719131913       22.34411277326527      10.149791985735751