(written by ASE)

1080 atoms
4 atom types

0.0      24.299999999999997  xlo xhi
0.0      24.299999999999997  ylo yhi
0.0      24.299999999999997  zlo zhi

Atoms # atomic

     1   4    0.056408343191910709     0.15691377164446066    -0.39478911401520578
     2   2      2.0779570648428347      1.9415142390183131      1.9775846739770082
     3   3      1.7784886972608693      2.0782097650360933    0.064473600912419965
     4   3   -0.010408086398329481       2.044269326061511       2.311763479426844
     5   3      1.8830983976683098   -0.022418156922061946      1.9963743529339288
     6   4   -0.085813634821503101   -0.085085407820162717      3.7061118348891608
     7   1      2.0895717343064151      1.9818158204334171      6.0572623220997253
     8   3      2.0814503490961962      1.9428141638968193        4.01666167419984
     9   3   -0.048800135620260698      2.0693083468120976      6.0716057326104949
    10   3      1.9870542302409551   -0.061712603863826994      6.3663491957710363
    11   4     0.13176760841130067   -0.004820842863776733      7.8813523101630958
    12   2       2.094832969878095      1.9790778060532219      10.048625680336553
    13   3      1.8730210841108599      2.0612453568302418      8.1649944561616561
    14   3   -0.038031665463550093      2.0864666869414008      10.452545201658422
    15   3      1.8184884745780414     0.04529770737196772      10.131338501842047
    16   4   -0.024730680738768319      3.8949047569481525    -0.40549193324336247
    17   2      2.0048929369007356      5.9130657482620688      1.9193371176593865
    18   3      1.9125519232409571      6.0805870042343191    0.042054153931667809
    19   3  -0.0048928697406550098      6.1381528739840112      2.2255113119655845
    20   3      1.9641537805812701      4.0158490111237235       2.140314373283966
    21   4      0.3792557620290109      3.7130156451814127      4.2154117292739706
    22   1      2.0174969169766945      5.9903868141354408      6.0532702931332976
    23   3      2.0621117918317164      6.2493203696999009      4.0045535106797949
    24   3    -0.07248456186096984      6.1355136908105372      6.0547505165684354
    25   3      1.9378542231038072      3.9998864227762168      6.0826053369600022
    26   4     0.36719291925158709      3.9625427043637416      7.8024206155448068
    27   2       2.127780814853002      6.1124987921216967      10.172590279284391
    28   3      1.8743873313087931       5.978229634480944      8.1961315387568199
    29   3   -0.085925298725873747      5.9651196360499723      10.274602522767019
    30   3      1.9284438899680159      4.0035576257582814      10.309094461503276
    31   4   -0.023101269206707364      8.0169513031989847    -0.40395077447850691
    32   2      2.0151528266764922      9.9710436148807577      1.9986465181002493
    33   3      2.0168522709980325      10.335259961242871    0.058454888500302692
    34   3    0.017073296071766522      10.338529571398803      2.0830485888406511
    35   3      1.9501017012927919      8.1035915946041275      2.0014513230283204
    36   4     0.24557693319906768      7.7641200342974912      4.2073197621832694
    37   1       2.003020593278511      10.088771056805014      6.0706729908525947
    38   3      2.0105737434647653      10.219026650087306       4.004321043077085
    39   3   -0.050606528282355817      10.332693926029519      6.1331693021222407
    40   3      1.9613384591308942      8.0715034269856272      6.2204841546891974
    41   4     0.38243008721740479      7.9791718719874263      7.9204211912918758
    42   1      2.0199064600088872      10.031970460343489      10.153153471106334
    43   3      1.9422450825522455      10.266510776072598      8.1396090636936584
    44   3   -0.096008336713368364      10.377974960226755      10.205623238546906
    45   3      1.8624215483809714      8.0119429801159932      10.111776294161759
    46   4      4.0659696533036129    0.047367004555855012    -0.32762498602431112
    47   2      6.2526532992652957      2.0929402511061475      1.9792146929067995
    48   3      6.0947704080533205      2.2562044901995724    0.068129829567145445
    49   3      3.9815647200984792      1.8852432331575137      1.9865748354668498
    50   3      6.1149193328889266    0.039281470608200274      1.7781457054920065
    51   4      4.0715901670301937     0.25999805661856301      4.0618778981347319
    52   2      6.1241332795257728        2.02853875646014      6.1784865547438006
    53   3      5.9428039413612099      1.7273695274549563      4.0246081839802699
    54   3      4.1433242246716757      1.6919731972396062      6.1182458498356498
    55   3      6.3253846709220358    0.015632196197861967      6.2464964522466904
    56   4      4.0247927553706475   -0.017365204549942753      7.7976109424128337
    57   1      6.0981006216293769      2.0308683549791038      10.094953082147558
    58   3      6.2010305395098113       2.195947240305975      8.0586768449533572
    59   3       3.988004553282821      1.9890633395968678      10.188799288878519
    60   3      6.2063370961920894   -0.023427170722437472      10.060530326226397
    61   4      4.3644002499135173      4.0378940806431061    -0.33654829591774793
    62   2      6.1396763713100082      6.1761506511803477      1.9902311523674989
    63   3      6.0224738312916033      5.7830792688782573    0.067388472699033516
    64   3      3.9495323990555153      6.1180346300170605      1.9996213761673867
    65   3       5.845032109699277      3.9842208874428247      2.2776515079811723
    66   4      4.2621850012106446      4.1395811604675679      4.1013407998062297
    67   1       6.077912775241991      6.0822683530225898      6.0254800340511459
    68   3      5.7917854058996445      6.0771455115855089      3.9863049684469938
    69   3       4.035244002935845      6.1595725684755456      6.1851966743327846
    70   3      5.8921922839919851      3.9583525663303538      5.8570077029258432
    71   4      4.2275590074598206      4.4094359690293983      7.8320656674436933
    72   1      6.0808526178487554      6.0394816856641977      10.084906751305462
    73   3      6.0866707152320041      5.7548174286341336      8.0902300985958533
    74   3      4.0113935550319511      6.0133248207557761      10.163266525954421
    75   3      6.0792918963656568       4.036349569321418      10.523970592243055
    76   4      3.9613537804676513      7.7658932320946192    -0.33421480626377104
    77   1      6.0294501721240827      10.042933491712562       1.980877156926016
    78   3      5.9903022271181996      10.355146355747332   -0.069946445341682054
    79   3      3.9579932117404888      10.294097727624797      1.9888158505690996
    80   3      6.0929402485543376      8.0271033727284298      1.9110816071087007
    81   4      3.9657081343391414       7.677924201126233      4.1448503451143521
    82   2      6.0330283301190999      10.015154963184445      5.9467908377308154
    83   3      5.9485831823409683      10.081431304511245      4.0793291770292734
    84   3      4.0780892782246152      10.062970229964129      6.2788533329488212
    85   3      6.1101267976805715      8.1223361987750042      6.2650762542574352
    86   4      3.9089354376385916       7.978585804732087       7.688483165582241
    87   2      6.0952164151308121       10.01190709250001      10.029029045112637
    88   3      6.1299760214958594      10.357105141734326      8.1179935072980864
    89   3      4.0915398436190422      10.181550714492436       10.10899696079723
    90   3      6.1656388559764794      8.1021945341556059      10.086704908730555
    91   4      7.8421851856380398   -0.068305126086510001    -0.22973197067129933
    92   1      10.107616214476089      2.0424704412173207      2.0261980538955036
    93   3      10.099665372499562      2.3095621337075549   -0.031296247351521922
    94   3       8.093755466781003      2.0778882072111045      2.1599289253918443
    95   3      10.439373135845676   -0.021476108302848951      1.9397600237551718
    96   4       7.863538706166298    -0.11473672261534419      4.1663439863849208
    97   2      10.178158170750612      1.9565091088348023      6.0336306085525253
    98   3      10.478077558358395      1.9261660629368325      4.0970133400178312
    99   3      8.1353382779528083      2.1672793141594546      5.8732368838512796
   100   3      10.050322567701127    0.044497602007632205      6.1947823232150325
   101   4      7.9482350892105531    -0.24279571393929614       8.004306152837307
   102   2      10.003266608423081        1.99536299970274      10.069216715631876
   103   3      10.012832984868227      2.3277334209995666      8.1153980274515281
   104   3      8.1544899140707319       2.119465894588664       10.37331242843786
   105   3      10.142656930142586     0.08869593332284495      9.9881551169469311
   106   4      8.2616580532133632      4.2868366805216054   -0.083914377857815942
   107   2      10.366995988418463      6.0775931514595758      2.0122278559360618
   108   3      9.9497855850212478      5.9368012559497947    0.050048742554830238
   109   3      8.0191267042859753      5.8695480209125961      2.0794076784660671
   110   3      10.263164615381482      4.1021000253480215      2.2282386493406885
   111   4      8.2659754363838562      4.4068368660811013      4.2428921785360956
   112   1      10.141963491334465      6.0816688448044669      6.0190681128672985
   113   3      10.024411910303904      6.2060045525135532      3.9786071515121764
   114   3      8.0912630546133588      5.8994760427001527      6.1309414700924965
   115   3      10.311868936087759      4.0337978541316977      5.8650640826586047
   116   4      7.9121601989275723      4.3609203746663567      7.9641997248053462
   117   2      10.207235730565589      6.0871752791140876      9.9996742850669822
   118   3       10.07631077947641      5.9317341118270299      8.1262402810407011
   119   3      8.1856713474061866      5.9871981738374567      10.344404292282876
   120   3      10.263474348150096      4.0888286998563634      10.383050634410548
   121   4      8.5811158372787748      8.1227775897401084    -0.15764997552668547
   122   1      10.192781324507514       10.10453971189585      1.9761255646061804
   123   3      10.044139480617654      10.118444375538166   -0.029097136127212569
   124   3      8.0605149527527047      10.229305351278715      2.0937784738871734
   125   3      9.9035901373036079      8.0343094384592675      1.9218989505010979
   126   4      8.4058254820162297      8.2723395748546267      3.7326383999221924
   127   1       10.02496070013718       10.11715005192211      6.0421460304908488
   128   3      10.103631181778811      9.9793347422165599      4.0265528103054393
   129   3      7.9892241579538616      10.257444888585267      6.1307557575061029
   130   3      10.036946543166183      8.0911159892112732      6.2116894944568557
   131   4      8.1560733880556562      7.8722705131282602      7.6082255743314953
   132   1      10.102940708341594      10.084079007698843      10.153677141927876
   133   3      10.144897648950501      10.263841105808394      8.1229249370815886
   134   3      8.0520261166491274      10.301481622894878      10.235088268602622
   135   3      10.061370045885548      8.0384348814955082      10.180254869061796
   136   4     0.15552679644166689   -0.050979487603803143      11.871690966779481
   137   2      2.1472850910132353      2.0562484054977404      14.184803243595368
   138   3      2.0206544285838333      1.8989193118796703      12.228916311544626
   139   3   -0.085257897847997741      1.9847484481906235       14.09517357809982
   140   3      1.8710105357523146  -0.0085874935935132176      14.374013210083609
   141   4     0.28021053022545039    0.042929175259561844      16.218987395085087
   142   1      2.0832995783442021      1.9943367457515491      18.176552331723364
   143   3       1.719407429028446      2.0567600690063577      16.155355072155558
   144   3    -0.11482499816435199      2.0987884894810533      18.418053960005846
   145   3      1.8031005523946366   -0.046631774990963229      18.118376340456553
   146   4     0.28080265528095955   -0.082314340716306569      20.060376727578745
   147   2      2.0670172362369819      2.0668205094042378      22.096372126010557
   148   3      2.0366454777334493      1.9391926016594692      20.220089765602168
   149   3    0.019331087253996279      1.9666154082105831      22.287994498928033
   150   3      2.0304434993393894    0.063253179679727059       22.45241693880282
   151   4     0.27328879207807161      4.0141517407817044      12.082667687099512
   152   1      2.0246062360933843      6.0122293709107382      14.190520929799092
   153   3      1.8859069624885256      6.0999630342330171      12.142995115859822
   154   3    -0.14810587664980596      6.1380690449274642      14.089620803089794
   155   3       1.825136528418468      3.9607575251128324      14.154388588818724
   156   4     0.28256376915619541      3.9461384870626128      16.168660456031304
   157   2      2.1485249008788725      6.0569677723583712      18.180292836838966
   158   3      1.7211146253842886      6.0300340701465638      16.236461501463967
   159   3     -0.1366716250572815      6.0962098331639005      18.395555139057194
   160   3      1.8440531882913949      4.0934327719183967      18.236701468709882
   161   4     0.16163088740613846      3.8559417721413047      19.968866980246656
   162   1      1.9767219652967809      6.0172442277425864      22.209595879705791
   163   3       1.983995135971822      6.2261814876064188      20.161684085851533
   164   3   -0.066999149812630457      6.2099901770015578      22.276656462347685
   165   3      1.8840311771463487       3.994789710609485      22.254526959019127
   166   4     0.31507053820483305       7.900801499816227      12.275361059197499
   167   2      2.1651112330462747      10.125407865536239      14.174761846350131
   168   3      1.8744889709268246      10.101485706418957      12.206971924898486
   169   3     -0.1238285352691928      10.266127504168415      14.148983032719302
   170   3      1.8040575685364841      8.1454757895128811      14.218582330395256
   171   4     0.31779405773352437      7.9990351032964604      16.109714211522814
   172   1      1.9904331657627055      10.090669866271545      18.166355821279982
   173   3      1.7674590090059386      10.142096021061391      16.130207380808564
   174   3    -0.11788289505593416      10.236149947456489      18.245641662008758
   175   3      1.7547377850687582      8.0398803181935392      18.117235801530864
   176   4     0.28598636664781679      7.9477593646186353      20.034169077894632
   177   2      2.0003951304930707      10.143288063372001      22.101053435120829
   178   3      1.8227817571365954      10.020586852039985      20.229636154567238
   179   3    0.016079670429324015      10.074070130166298      22.478024288553836
   180   3      2.0471540156664361      8.1693209990257678      22.453039667852696
   181   4      4.2703176499937872   -0.039413043586869458      11.989258484741198
   182   2      6.2286024131569402      1.9651824186717619      14.149064163861611
   183   3        5.87932552260843      1.7772781515011029      12.236128564390816
   184   3      4.0212473215114688      2.0250826097575354       14.37050923531266
   185   3      6.1091786442020135    0.087289769667596148      14.503798031645461
   186   4      4.2134767093233743   -0.033263774116658672      16.403814705942498
   187   2      6.1128389546165716      2.0135190581631797      18.408766231325629
   188   3      6.1559073736611358      2.4140556768348365      16.127284143389097
   189   3      4.1062459461128329      1.9476026744975727       17.89016572902446
   190   3      6.0948680010127898    0.070949996404126206      17.898867858266826
   191   4      4.1004457296586727    -0.27844162420300778      20.306663048173917
   192   1       6.088895750455162      1.9873397447161369       22.27729680045768
   193   3      5.9205160825373486      1.7810774059927734      20.246332195115986
   194   3      3.9788556728533298      2.0273972204225124      22.482629904087112
   195   3      5.9892896447056474  -0.0023213971501238021      22.619982324353661
   196   4      4.3092756178862599      3.9361403025206503      11.889657986796633
   197   2      5.9201771044658242      6.0037895369419996      14.250616143314156
   198   3      6.0908673610071631      6.4241372157526309      12.258288725853648
   199   3      4.0459184578343912      6.1890641112153322      14.268192867041421
   200   3      5.9889159691161913      4.0732427837213514      13.847712019109125
   201   4      4.3009903172789539      3.8679916625844259      16.482757100632199
   202   1      6.1079787571278485      6.0625374201559001      18.172314755252206
   203   3      6.1912149318380303      5.8402354064620159      16.151661149366056
   204   3       4.015421196848175      6.1383458914337883      18.058343765019615
   205   3        5.87200292164649      4.0055815094027007      18.367532746083505
   206   4       4.448230104665841      4.3056993686342864      20.403079560130099
   207   1      6.0952910820541533      6.0678081810479059      22.335650290659348
   208   3      5.9508167867803499      6.2510912750069396        20.1984536767634
   209   3      4.0141857147516848      6.0991845844253287       22.28783745425801
   210   3      6.0131025859699001      4.0191226502926671      22.085377480992431
   211   4       4.373738516652331       8.068388287232608      12.133615241642872
   212   1      6.0953774600341344       10.10248604592689       14.18928075925689
   213   3      5.9122474042914677       9.932902436952423       12.13126755079869
   214   3      4.0352266146986162        10.0473754895896      14.254393238787443
   215   3      6.0526921139508509      8.0593208154987384      14.549674889471307
   216   4      4.2117346887101306      8.1042973592987373      16.151475729451704
   217   2      5.8300700510065262      10.129942518923199      18.256050316443648
   218   3       6.137913471990105      10.418340284867487      16.255331961051816
   219   3      3.9919325757803281      10.139138391383101      18.111789872266268
   220   3      6.0523357655215166      8.1724159963468104      17.830207235778115
   221   4        4.23701701409599      7.7865455952047054      20.458698895019651
   222   2      6.1660682221050269      10.091292294768229       22.32850758060443
   223   3      6.0274499137798632      9.8882138890632554      20.210305227524334
   224   3      3.9796000193222829      10.256612040740388      22.318115013623419
   225   3      5.8616905047258818      8.1422304639298542      22.340485473001362
   226   4      7.9087369554852902    -0.22930694570162707      11.972531542660894
   227   1      10.086040896499238      2.0307478408203838      14.123047244034144
   228   3      10.505052161844441      2.0109726209144885      12.067550269952353
   229   3      8.0896746498395125      2.1597005781617526      14.090317760000511
   230   3      10.254618162830001   -0.075935817465523303      14.234912478721922
   231   4      7.8197095648085844    -0.30570059630415763      16.303275854174956
   232   1       10.10337856762639      2.0161230363314835      18.271992707964547
   233   3      10.149952200975447      2.1784281660444433      16.192165646487513
   234   3      8.0359687776290123      2.1141002457673519      18.178722237334757
   235   3      10.301326597052679   -0.034840436526938912       18.20648264029516
   236   4       8.080930190808461    -0.32802571945318876      20.235830700825407
   237   2      10.060541334390317      1.9363882173840705      22.342453476754876
   238   3      10.433909914600235      1.9332653161138664      20.299615635325658
   239   3      8.1381924041940916      1.9411600554344981      22.182354615346881
   240   3      10.361805915615767    0.038510430298702485      22.383715900641331
   241   4      7.9278235010690423       4.101041927671182      11.862427328938249
   242   2      10.031290790724578      6.0513840378651098      14.174532429443085
   243   3      10.259454745795534      6.2602915390311606      12.260176830014272
   244   3      8.1528051057088966      6.1573499512911933      14.160762170297867
   245   3      10.320905672654936      4.1548291151201786      14.097252531402852
   246   4      8.2571250433015599      3.6333249779680701      16.323485578298708
   247   2      10.039754773873343      5.9910615378860843      18.250072582662774
   248   3       10.26521405310689       6.120436873716983      16.211160967407615
   249   3      8.1658174395983583      6.2709221049496149       18.23031741093774
   250   3      10.141530153268951      4.1253896655512881      18.294453502255081
   251   4      8.0333558869286019      4.1189713674777062      20.696348186430296
   252   1      10.161046613637486      6.0419644000204631      22.262145765396991
   253   3      10.197857199767755      6.3413713188284353      20.155346035120477
   254   3      8.0988117332646574      6.0552345360971218      22.127203833553139
   255   3      10.001753496760237      4.0250291054093505      22.047699746940669
   256   4      8.0098743570930431      7.9094512643196699       11.83910133451376
   257   2      9.9796891933289871      10.135088851170202      14.118327068058599
   258   3       10.27178222993137      10.088742348821375      12.231376923153579
   259   3      8.1310693313702593      10.130656342217733        14.2153684713033
   260   3      10.273913855781181      8.1654507034677124      14.367483687580238
   261   4      7.7781181030756503       8.055709736647259      16.209776335063975
   262   2      9.9990254498684443      10.076967147537735      18.209452937973996
   263   3      10.259713796870166       10.31892747968231      16.231669046986745
   264   3      8.1430614418416027      10.069573532557946      18.223011387696552
   265   3      10.362323129454133      8.1860116133145606      18.084286117250695
   266   4       7.931101053661223       7.689321462723619      20.434624430809148
   267   1      10.079225827663342      10.139492965553213      22.188168110276145
   268   3      10.380915590632878      10.067312319604529      20.153544348697043
   269   3      8.0454301211621466      10.039626634870423      22.276871724307416
   270   3      10.298320382199064      8.0875115988274775      22.368794752682874
   271   4   -0.033843852820598458      11.873211433744704    -0.23679744620696233
   272   2      1.9634441316210132      14.183008597374197      1.8909827565619977
   273   3      2.0034626100836439      14.187891599016529    0.033368449499871028
   274   3    0.060415439853508217      14.247403677494145      2.2366646878881236
   275   3      2.0864091956434332      12.256605603537354      2.2177201990730717
   276   4     0.07659857130952348      11.851743826550232      3.9818843057362709
   277   2      2.0243282135883667      14.070273252010113      6.0603026553230803
   278   3      2.1740017259557463      14.320556032882191      4.1663858031766816
   279   3    0.086104540186105055      14.255960489114623      6.1794749530930329
   280   3      2.1711221599072252      12.207405366557262       6.093632404588134
   281   4     0.14471191167644984      11.736249441895946      8.1090943915026337
   282   2      2.0371131943807241      14.073187463638188      10.193738954929042
   283   3       2.057585897501196      14.283885371013326      8.1355212660114482
   284   3    0.014251216847958501      14.223756729290727      10.136785390728107
   285   3       2.077128666814648       12.20063196004949      10.245639115338319
   286   4    -0.14106337593388474      16.110137091731644    -0.19994368184289524
   287   1       2.034413686827663      18.196341516853629      1.9975195532014896
   288   3      2.0723956500323397      18.442463850854963   -0.023292268768545617
   289   3    0.027166701152723648      18.242212395978633      2.2977135304247809
   290   3      2.0783418931715181       16.16151128431207      2.1944434134494322
   291   4    0.023885719927595757      16.295398936761746      3.7011230491507399
   292   2      1.9518905805680744      18.190938257880621      6.0554706791094199
   293   3       2.268016510252814       18.24985371190661      4.1637780617947362
   294   3    0.066754573270867965       18.43652136700592       6.079892266417481
   295   3      2.0128927739539746      16.301798814788146       6.272323337068614
   296   4    0.033464435797313737      15.981631071886667      8.0776911416017594
   297   2      2.1043341296525484      18.226469186107632      10.117268429032826
   298   3      2.0185378641338843      18.537715040087281      8.1284346681496125
   299   3  -0.0081804942229373595      18.567604307458815      10.169640369202712
   300   3      1.8702035576374889      16.295359182350353      10.007676672495842
   301   4    -0.25649634756276302      20.385119356287351   -0.056384794376759244
   302   2      1.9617487393123514      22.218312840305423       1.853253893645173
   303   3      1.9260726445720151      22.142920250886348  6.5552202301534884e-05
   304   3     0.06329072040711313      22.237245866431284       2.195876276103061
   305   3      2.0903990250347619      20.323852214359626      2.2647874722818715
   306   4   -0.069641445698698845      20.163815715354591      3.7042875236024786
   307   2      2.0296480439544204      22.310390409288601      5.9611651571606457
   308   3      2.1714264582165437        22.4266640202645      4.0719287302263032
   309   3    0.052978313425802392      22.216892671975035      6.1395562942635991
   310   3      2.2600999049104016      20.287237825704306      6.0363672060308993
   311   4     0.15747390397023925      20.395297990481637      8.0724741036212304
   312   1      2.0254569311593515      22.297124072073863      10.112808594558079
   313   3      1.9698944346339209      22.017042245484159      8.0977522840052405
   314   3   -0.064404774984712754      22.130939843729156      10.336532925788529
   315   3      2.1256235625417075       20.26373085172418      10.394701669909004
   316   4        4.03920082743557      11.820076884093368  -0.0070454381934339045
   317   2      6.0136320214055656      14.033830168303638      2.0013135346533071
   318   3       6.100723264226132      14.182542249281349      0.1032900259206877
   319   3      4.0572672847038049      14.264413194197813      2.1134043800487254
   320   3      5.9960953571855464      12.183134225859924       2.184949451351001
   321   4      3.9130939887338312      11.813619736970578        3.88331258160727
   322   2      6.0810267897677655       14.02140947780167       6.085279068884895
   323   3      5.9695355351411594      14.439491789101506      4.0762532162061991
   324   3      4.0550793528582663       14.44877253205909      6.1806193734959836
   325   3      5.8917403160481276      12.159366441327224      6.0335758963633319
   326   4      3.8261082588885653      11.678011895734409      8.1140843767930324
   327   1      6.0592613763124357      14.112790454622283      10.073850531746986
   328   3      6.0771411737545655       14.32497840105442      8.0197424970955336
   329   3      3.9897501727097779      14.417575914610513      10.088671389276131
   330   3      6.0344173877757044      12.123802561111495      10.471827129711965
   331   4      4.1272989120860926      15.902437518390609    -0.39581722216731768
   332   2      6.0812551474906087      18.117335211670884      1.9991825098342149
   333   3      6.1207299440489074      18.494573672829688     0.07056264587170738
   334   3      4.1355723852838091      18.470677421474981      2.0244765877815141
   335   3      6.0718919425852889      16.245418899917627      1.9905780917477591
   336   4      3.8891097323672748      16.040409467535213      3.8936505474529191
   337   2      5.9560048704051027       18.27327715117714      6.0888764607545607
   338   3      6.0770429992524546      18.283033808813126      4.0645985604203894
   339   3      4.0774946833967087      18.211146123925502      6.2440091169902949
   340   3      6.2873077195045539      16.300811226526736      6.1067292106083695
   341   4      4.0811992818957465      15.900071096222938      8.1452179816903634
   342   1      6.0916195863411922      18.245630200038967      10.087081210496567
   343   3      6.3580271428956179      18.272797009753347      8.0551432248771757
   344   3      4.0289717148652304      18.242949537248137      10.200006356136287
   345   3      6.2330126903573753      16.211844970881174      10.104769328604187
   346   4      4.0535541267765005      19.914306663089953   -0.042729538837936162
   347   2      5.9634220377568772      22.309952158975989       2.058019430917033
   348   3       6.293157122479486      22.195501627232034    0.027101274365192069
   349   3      4.0492494618713852      22.339608011759335      1.9466820947026084
   350   3      6.1565070564437399      20.391475253448991      2.1909755274385176
   351   4      3.8655274031337301      20.064454330840793      3.8526879141918995
   352   1      6.0552432946328603      22.246571703557649      6.0080214156266178
   353   3      6.0535447682933654      22.634335507046345      3.9776096407953503
   354   3      4.0387484040939929      22.409347502674304      6.3319333335507411
   355   3      6.1194042173514092       20.22957459290399      6.1415941835234982
   356   4      3.8419396127118639      20.509060331088499      7.9383580439383827
   357   2      6.0396890868588171       22.29032528717439      10.074208604663417
   358   3      6.3268188126059419      22.191424240978833      8.1500286321101836
   359   3       4.096425241291815      22.276493436852405      10.117875578352214