(written by ASE)

1080 atoms
4 atom types

0.0      24.299999999999997  xlo xhi
0.0      24.299999999999997  ylo yhi
0.0      24.299999999999997  zlo zhi

Atoms # atomic

     1   4    0.052389733168225629      0.1592158944248078    -0.39348586447152489
     2   2      2.0822946858782649      1.9372201648924199      1.9751386434394365
     3   3      1.7828675661662505      2.0770976171935249    0.062983033875416955
     4   3  -0.0062894052966363514      2.0470107399143416      2.3085609942280523
     5   3      1.8832962673413234   -0.024157408107344486      1.9927088474795773
     6   4   -0.073245617532654503   -0.098076196065979976      3.7094471286298973
     7   1      2.0932839309917011      1.9795388660246995      6.0575186562364918
     8   3      2.0829533531818631      1.9449020342499559       4.014576453908659
     9   3   -0.048901087575237576      2.0695918683695265      6.0726803188868939
    10   3      1.9890591716942889   -0.058248302504036661      6.3654350661293533
    11   4     0.16030551320346056   -0.034029752809466421      7.8632393031495846
    12   2      2.1058722421015035      1.9828570443717439      10.044401211969396
    13   3      1.8745781722347594      2.0641613105699532      8.1644991364796571
    14   3   -0.048469896592331481      2.0748555320167501      10.454925967070064
    15   3      1.8226430608046045    0.053043465074512193      10.138966568750952
    16   4   -0.028317580459244596      3.8949285695846778    -0.40584532452314787
    17   2      2.0073907850684689      5.9111151767865762      1.9198055731574779
    18   3       1.916557312630131      6.0904958520277059    0.043284978395544252
    19   3   0.0020477263980471054      6.1398913050047685      2.2263118154269899
    20   3      1.9739212581739889      4.0157521755560186      2.1363968419829686
    21   4     0.38296245738148937      3.7096733739193888      4.2094542430372677
    22   1      2.0201706108459105      5.9897134655109809      6.0536889980770212
    23   3      2.0686009189703065      6.2472118068079308      4.0040023238127826
    24   3    -0.06950726420898222      6.1414651793793773      6.0553801151588553
    25   3      1.9376871486017766      3.9997523619437967      6.0818643614246843
    26   4     0.36976699450967299      3.9623601211184045      7.7982834362833886
    27   2      2.1307640474482823      6.1077786996317398      10.169691576107143
    28   3      1.8652478566040418      5.9836323129231292      8.1991149485653043
    29   3   -0.091791849482711699      5.9825707896596407      10.298795903854391
    30   3      1.9119904462035191      4.0041030826082888      10.297922707921414
    31   4   -0.024539586141645343      8.0094251917040502    -0.39978230974697687
    32   2      2.0152453784442175      9.9736113871021654      2.0032587586973301
    33   3      2.0172736083099814       10.33680380199757    0.062040805920122059
    34   3    0.020637900248351548      10.339770084999914      2.0872107595500533
    35   3      1.9587979877555002      8.1062997961616059      2.0074214031447801
    36   4     0.24379899125251489      7.7591458417862631       4.199110729292471
    37   1      2.0039525193980841       10.09218756455356      6.0701868336924463
    38   3      2.0189396314842627      10.225253789625345      4.0066156164794355
    39   3   -0.049393205491977815      10.320860999889039       6.131486441651731
    40   3      1.9734877465926874      8.0726419145912782      6.2190916310454032
    41   4     0.38673563078376383      7.9805785758609646      7.9073830021556777
    42   1      2.0175799511843562      10.042358276705286      10.165242503136156
    43   3      1.9406626006330203      10.276753218918946      8.1466056687390207
    44   3    -0.10349611174301244      10.363008280140242       10.20062587225974
    45   3      1.8656864525148311       8.011925739346335      10.128199038472182
    46   4      4.0711349747625079    0.041398055153201455    -0.33224588856405146
    47   2       6.250096439287681      2.0924059993335762      1.9807271287352093
    48   3       6.098628606641646      2.2527794073269627    0.066715104445689344
    49   3      3.9852931831671508      1.8811194613605293       1.984343642758488
    50   3      6.1199059917972694    0.033819127305235959      1.7661001096543314
    51   4       4.071642185838706     0.25426512718237387      4.0751857332794481
    52   2      6.1303323755245538      2.0235885258424431      6.1829430301805077
    53   3      5.9455446292787792       1.719270813538804      4.0206528758861229
    54   3        4.14634749574524      1.6976493296816804      6.1139674155217829
    55   3      6.3241686110565416    0.017855298958496395      6.2461527017898062
    56   4      4.0301987186530637     -0.0331957936346743      7.7909411464107565
    57   1      6.1027331924062542      2.0312460876294605      10.093345860504119
    58   3      6.1942619171759405      2.2142806061487175      8.0588907632733697
    59   3      3.9921898721167905      2.0069293839036018      10.187308834438699
    60   3      6.1959224238286366   -0.020394891899088066      10.078027727650792
    61   4      4.3644763224564569      4.0369535163622361    -0.34327387434126794
    62   2      6.1341398607432636      6.1774903780122248      1.9906110259963206
    63   3      6.0372887396129578      5.7797960996855604    0.070119176091947857
    64   3      3.9568786673872087      6.1242481206969499      1.9938119053140666
    65   3      5.8507236550000012      3.9836302256588443       2.280719681110666
    66   4      4.2600720654334614      4.1349506794489601       4.110314652361815
    67   1      6.0784815146432392      6.0861611278113799       6.025263149403707
    68   3      5.7931570103176631      6.0744799990206593      3.9870996125562437
    69   3      4.0370238678213264      6.1551693049897533      6.1883271334858945
    70   3      5.9005030106969754      3.9589339384853401      5.8483043578881695
    71   4      4.2422516433512278      4.4003021401011519      7.8316159821159834
    72   1      6.0874727633276375      6.0388720997503729      10.079832133530672
    73   3      6.0950293953388561      5.7533307020913327      8.0857277578727178
    74   3      4.0130491108799342      6.0101749841720489      10.157880083299425
    75   3      6.0821672183724447      4.0384892184335754      10.525124088708854
    76   4      3.9471163959745588      7.7772221757322235     -0.3335403509483757
    77   1      6.0174498265539027      10.059061026240419        1.98059428601821
    78   3      5.9940246429150283      10.359923781973979   -0.059439872713684803
    79   3      3.9574176148849092      10.308941597728314      1.9881053779896556
    80   3      6.1109062891972243      8.0332245153951369      1.9232863540206213
    81   4      3.9596484461215864      7.6813021962652641      4.1512345495870591
    82   2      6.0302298333662456      10.018879575235147      5.9470254993832388
    83   3      5.9415262139195715      10.070503321071239      4.0807010500369865
    84   3      4.0769002683749349      10.071399184366019       6.286024737100159
    85   3      6.0988649877950509       8.124020044041492       6.270811948417899
    86   4      3.9175007936711714      7.9765058944888967      7.6915214585638294
    87   2      6.0994566744228935       10.02896903676322      10.023202063942223
    88   3      6.1362432810345116      10.353761102557632      8.1168359786721371
    89   3      4.0913828798420617      10.175116781405315      10.104871062230313
    90   3       6.143015762979279        8.10609207947609      10.110078382536821
    91   4      7.8272163865691518   -0.067922014713437034    -0.21311872809510676
    92   1      10.105571394267143      2.0379642512691936      2.0229275653680441
    93   3       10.09766385548888      2.2719377550347217   -0.035365606343993446
    94   3      8.0922657260197788      2.0687254548777236      2.1573016493926462
    95   3      10.442610497341231   -0.025086883977143773      1.9399058345689113
    96   4      7.8681581570843964    -0.11137768244613133      4.1605576900839223
    97   2      10.183696031177567       1.959142935214448      6.0244507185472589
    98   3      10.471468919680165      1.9430598403079118       4.092651506108127
    99   3      8.1360106171318591      2.1682511654833023      5.8767717489545159
   100   3      10.050799195939145    0.046817568173064636      6.1925464801024113
   101   4      7.9755061127919085    -0.27190998412124973      7.9889129301251103
   102   2      10.001235622487608      1.9929498767854004      10.067402955742628
   103   3      10.010422360476856      2.3166091407792728      8.1219730546025701
   104   3      8.1539923192900279      2.1214206067335457      10.380076307507604
   105   3      10.146349186698131    0.087568082314073717      10.001968996603411
   106   4      8.2614329399819955       4.295369060038877   -0.068387385609000317
   107   2      10.360597725549896      6.0875555414472968      2.0044665834526225
   108   3      9.9299799108956286      5.9660393864617438    0.040853551280674187
   109   3      8.0199495362879798      5.8676632976065397      2.0966876008151201
   110   3      10.269636725698842      4.0969840270424518      2.1596566739030019
   111   4      8.2336507542752688      4.4190387069338382       4.241246034822133
   112   1      10.140763129368439      6.0752472675522933      6.0219316776382756
   113   3      10.091548990138874      6.1279789741489372      3.9798534274809425
   114   3      8.0928862023885095      5.9038421167099449      6.1158399939633794
   115   3      10.318581293791373      4.0296149519010962      5.9017352846733866
   116   4      7.9219249181839659       4.358882300169598      7.9565153902818269
   117   2       10.20716203143216      6.0843854827147998      9.9992833779423691
   118   3      10.068120527186212      5.9402385806038822      8.1259355813462086
   119   3      8.1842119998391194      5.9932134059998852      10.344532695383249
   120   3      10.258191907794687      4.0907205412670731      10.384701053387255
   121   4      8.5774845093268812      8.1336069125549475      -0.169568758265216
   122   1      10.193283380102912      10.109044713591947      1.9751420104289008
   123   3      10.029280955029417      10.114105421496264   -0.027582550404807633
   124   3      8.0549323872141425      10.208905725585307      2.1245948217834352
   125   3      9.9007502285660784      8.0382667812305915      1.9434183388098032
   126   4      8.3298564648369613      8.3453633585628921        3.67437321985981
   127   1      10.021240718559598      10.114493015025426      6.0413383096559681
   128   3      10.105925597235675      10.003835490708976      4.0278321611065007
   129   3      7.9886986589769133      10.244062535603664      6.1262017587427682
   130   3      10.060358922341154      8.0869410902306935        6.19934056366266
   131   4      8.1627589527504405      7.8811161637886427      7.5911851276871865
   132   1      10.098814292431715       10.08387930973571      10.152286561761645
   133   3       10.13729318362766      10.255223284257895      8.1212576970302468
   134   3      8.0535507053943434      10.273651945225492      10.258344999551882
   135   3      10.056026786556346      8.0381751699095769      10.185476347337927
   136   4     0.16772051381162792  -0.0071581697497455302      11.891283545712373
   137   2      2.1481935558915657      2.0552531294685346      14.188596456961481
   138   3      2.0099000647745568      1.9075580783926445      12.227146076037272
   139   3   -0.085668574917152282      1.9813846081375657      14.090159746920403
   140   3       1.864726812078271  -0.0056971457613910082      14.360904016288572
   141   4     0.28068254334306575    0.033482083301861594      16.222118456518597
   142   1      2.0851075582215053      1.9927375880611382      18.179295333117778
   143   3      1.7182728491847419      2.0508488288005866      16.156029894093912
   144   3    -0.11363959548706454       2.110339774636286      18.412307930819338
   145   3      1.8009476690538149   -0.046133794594537474      18.125263932353988
   146   4     0.28489937843887986   -0.088314027649021021      20.062863551337674
   147   2      2.0682605183176945      2.0676662922344087      22.098375184241199
   148   3      2.0345486741137835      1.9448798102295584      20.221249042906152
   149   3    0.020883075841647128      1.9728350344765448      22.288515201810135
   150   3      2.0263173765645095      0.0625029239146659       22.44893056736564
   151   4     0.27765949589941047       4.010764923767784      12.089153666939081
   152   1      2.0242534909861081      5.9981685195210117       14.18911059590774
   153   3      1.8792805906305239      6.0879951363265219       12.14332859060641
   154   3    -0.13924663458513248       6.184611221661644      14.099194443326251
   155   3      1.8149359090088797       3.957811347155276      14.156118681004058
   156   4     0.27053720188015851      3.9257052219281232      16.186560517222855
   157   2      2.1417596616717529      6.0634138259075261       18.17661568634577
   158   3      1.7017684630607959      6.0256714410506431      16.235057416840821
   159   3    -0.13514891369699669      6.0908205287038122      18.396851777224494
   160   3      1.8548668232443632       4.096503289796412      18.237826649825937
   161   4     0.16589109306959091       3.856219718418465      19.970899828854961
   162   1      1.9738514379923624      6.0185771155906584      22.208642116363709
   163   3      1.9936370945580086      6.2370095946062714      20.158856789281998
   164   3   -0.065873730082030887       6.206719135264831      22.278344484479849
   165   3      1.8943534104417308      3.9964598018236428      22.257209544120307
   166   4     0.25357601132832169      7.8402487174034787      12.212829323927597
   167   2      2.1266359988406629      10.045843640799593      14.172535119061614
   168   3      1.8737836605351081      10.159498108672999      12.222631976720061
   169   3   -0.086145419299480816      10.261039181685586      14.163454553061237
   170   3      1.8447643808502083      8.1388044572956666      14.232787657176738
   171   4     0.25104089434170135      7.9338471279343414      16.102741053760436
   172   1      1.9807618737407076      10.105939607814969      18.148983222243384
   173   3      1.7826062450680551      10.235507299685917       16.10888553481275
   174   3    -0.12468497041531747      10.273161227639498       18.23815009520677
   175   3       1.741147710256906      8.0466756832770141      18.100650315112521
   176   4     0.27331371130198767      7.9572471513124174      20.016736471363636
   177   2      1.9915191169129598      10.143127252039763      22.094908450995629
   178   3      1.8313779588581718      10.017077410610051      20.224122158756042
   179   3     0.02211288024910853      10.091650315246179      22.477264700054022
   180   3        2.04769492570566      8.1710422672465803      22.456352225500101
   181   4      4.2892022130330254   -0.053729637928501724      11.985130048324431
   182   2      6.2284990056615754      1.9690650806542682       14.15018227342081
   183   3      5.8713270610708266      1.7924302440141406      12.241653558988192
   184   3      4.0208248800954758      2.0296449951892637      14.374627933296063
   185   3       6.111876030013665    0.090019232441320943      14.509585923452562
   186   4      4.2122283736500856   -0.037322894332420989      16.408547526023359
   187   2      6.1143787847809117      2.0149564117153522      18.401434614539649
   188   3      6.1593452466431247      2.4164582675452797      16.130902363567724
   189   3      4.1058251876010896      1.9455660110514361      17.884340752896843
   190   3      6.1074670903797807    0.073128286079327698      17.900000924184045
   191   4      4.1020189166697252    -0.28276474363131138      20.310314678468334
   192   1      6.0883393068222551      1.9874502031277981      22.275791329943818
   193   3      5.9159646211099037      1.7921116419907461      20.241557767529379
   194   3      3.9809356922301347      2.0230539951108804      22.482768256037609
   195   3      5.9959449299333851  -0.0050611054037197805      22.612927817176704
   196   4      4.3205660420688154      3.9330215394147947      11.897054755057567
   197   2      5.9112444589955064       6.012963324356444      14.240943261637026
   198   3      6.0862688661139899      6.4152558642846955       12.26092310378726
   199   3      4.0397378564345443      6.1743734027325585      14.288564005653319
   200   3      5.9918201545765237      4.0774370861114626      13.862078551563208
   201   4      4.2989922817404658       3.868797482652234      16.479069538560942
   202   1      6.1067668296722211      6.0605670659449125      18.174944026760645
   203   3      6.2016629927064288      5.8714729069450193      16.152780187561437
   204   3      4.0107342233568417      6.1584853484728699      18.038880714675724
   205   3      5.8607135011277958      4.0110218175030639      18.361796452131891
   206   4      4.4518242595511346      4.2953061193231923      20.393767846192745
   207   1      6.0932028398892371      6.0697751228149768      22.335201792065945
   208   3       5.942066738742775      6.2510706906985352      20.195463073187788
   209   3       4.013466008076449       6.110826822227243      22.293439955993342
   210   3      6.0066706146651168      4.0208420221922045      22.085442879451207
   211   4      4.3909424318057653      8.0818280903292283       12.07286075718652
   212   1      6.0899762855366362      10.102561198586482      14.182341000313288
   213   3      5.8982847850553108      9.9442868862825673      12.138794009245577
   214   3       4.003121175067581      10.128580557767549      14.268754936823166
   215   3      6.0395921187976533      8.0711146990260989      14.548234388084333
   216   4      4.2199437979090275      8.0772859589533024       16.16962725335538
   217   2      5.8397105237973141       10.11566987726621      18.286582936759395
   218   3      6.0827199456387619      10.480101960958997      16.241966511522339
   219   3      3.9977015220512286      10.141052304525637      18.097165190436669
   220   3      6.0618336008875735      8.1877783584795623      17.813427011926596
   221   4      4.2153189157628068      7.7727256110956358      20.474920565495438
   222   2       6.159405881172944      10.097057082116608      22.351116256637539
   223   3      6.0296695068401469      9.8953049008738265      20.210054525215902
   224   3      3.9833262409534136      10.244063875417863      22.322573265019326
   225   3      5.8712890545496261      8.1460504668950531      22.337893649395202
   226   4      7.9159771112713742    -0.23377435326142373      11.959026952281768
   227   1      10.085367609119048      2.0266764603149876      14.123748281029314
   228   3      10.506892721010363      2.0121110480625011      12.072472896797807
   229   3       8.089447036557976      2.1620785255995494      14.093734424745126
   230   3      10.262236104861728   -0.080878025842723925      14.235756926659814
   231   4      7.8221838233193557    -0.29871373872171425      16.277558712604439
   232   1      10.105371523091261      2.0183298240078598      18.270069480480615
   233   3      10.146849313177663       2.179467033607553      16.192273654643696
   234   3      8.0364078664267016      2.1270489101965944      18.185189380319819
   235   3      10.281631295923576   -0.032434884543857262      18.216208537183061
   236   4      8.0640925454357912    -0.30565679426142728      20.240742553922967
   237   2       10.05552335078294      1.9352255748437723      22.340586425011558
   238   3      10.437918302940586      1.9386045356282589      20.296143330985871
   239   3      8.1350683061633902      1.9450699195787955      22.165291405558943
   240   3      10.359082452630123    0.033199757722933168      22.360681469400951
   241   4      7.9322068991913843         4.1062564934334      11.861202999163428
   242   2      10.034925212321481      6.0482836775782456      14.170616109870803
   243   3      10.254033246796158       6.264550748806637      12.259577005694791
   244   3      8.1542196167981444      6.1601283179334372       14.17050329934372
   245   3      10.320209936403991      4.1539608006244926      14.097588902792387
   246   4      8.2594995698693943      3.6369759148114253      16.318241603014343
   247   2      10.042193955077392      5.9882302442706123      18.252001717207726
   248   3        10.2611099366078      6.1239429529007419      16.213201000635749
   249   3      8.1651177410628932      6.2727941096930238       18.22759704813166
   250   3       10.14419616153997      4.1247320873266622      18.293148653387934
   251   4      8.0356056347214171      4.1159019478942636      20.699997405998687
   252   1      10.158623724126397       6.044756161132419      22.260799287920957
   253   3      10.196012254475795      6.3397913046626178      20.155838658982969
   254   3      8.0953345151870053      6.0570512854060148      22.118488801339289
   255   3      10.003248260204119      4.0238096547642801      22.061659079456337
   256   4      8.0223776814294716      7.9281610289724362      11.820924615006291
   257   2      9.9757082089005902      10.137546517961882       14.12433666471809
   258   3      10.264629042024929       10.08085735537481      12.235508877525819
   259   3      8.1259486786983608      10.159183395421355      14.235946336101479
   260   3      10.262669096051058      8.1675432317377918      14.374824905080684
   261   4      7.7965029553504941      7.9907055747125497      16.196260104636849
   262   2      9.9994816809257259      10.081589303153246      18.206882190859929
   263   3      10.267409619919569      10.320894037809733       16.23178699523217
   264   3      8.1357859414527258      10.096871443516827      18.187412108367077
   265   3      10.350509196569503      8.1893973866569052      18.084358367720398
   266   4      7.9303904619693899      7.6892752618966185      20.442736712335112
   267   1       10.07699892904451      10.143070482630371      22.184720457769977
   268   3      10.373422830047351      10.070614312770109      20.149257905498754
   269   3      8.0399468848216991      10.047669148419034       22.27287803172597
   270   3      10.291582202816766      8.0928617106651632      22.358589903704623
   271   4   -0.045851596088614888       11.87584436703499    -0.21708339186570277
   272   2      1.9649806610223115      14.190495801311883      1.8869453540548928
   273   3      2.0011707388468345      14.185525762118141    0.030519067229567778
   274   3    0.065187084212476279      14.253549325447347      2.2458005999736494
   275   3      2.0849448469516814      12.262666416904896      2.2183950625707238
   276   4    0.073999674410567706      11.858439067551494      3.9841005106075174
   277   2      2.0245451479298104      14.087028112523546      6.0364017149542013
   278   3      2.1981489289709897      14.322373610706959      4.1552570317398034
   279   3    0.098460357811474858      14.267038079391213      6.1576028690292857
   280   3      2.1682103992600812      12.218537327457602      6.0952386709322406
   281   4      0.1374606900428762      11.738731860095028        8.08653689304602
   282   2      2.0564606642148608      14.073168255479372      10.089383377895167
   283   3      2.0519531246477718      14.221777105103595       8.146611907820434
   284   3    0.060817974018798286      14.285044637426708      10.214586978220357
   285   3      2.0500969886446603      12.217071215212112      10.268725102303151
   286   4    -0.14807761027093752      16.104569353701649    -0.18509067574598742
   287   1      2.0334169524449419      18.196574140828616      2.0024467156598664
   288   3      2.0642481037399727      18.442968581614437    -0.02162399417133613
   289   3    0.027926698261701244      18.241503133832914      2.3061283022879504
   290   3      2.0911225108612785      16.164523863271327      2.1911313603752478
   291   4   0.0082818275426212312      16.302874722159729      3.7139550882869763
   292   2      1.9485430493173577      18.172109266423028      6.0902236317519174
   293   3      2.2810607339860085      18.240760607209499      4.1824835366528204
   294   3    0.066697360210500947      18.408173478332461      6.0706561047834979
   295   3      2.0527251991868081      16.288384568812315      6.2907151710185998
   296   4    -0.10055956686464489       16.01563288379041      8.0923049839294077
   297   2      2.0621413834375408       18.18234479240131      10.194987838725176
   298   3      2.0323663783505217      18.578922965804917      8.1175050735168686
   299   3    0.026063909542288519      18.550312687726738      10.176710048195559
   300   3      1.9524270762806852      16.278725945474829      10.007263446090354
   301   4    -0.24955872555731343      20.391021311769684   -0.065790397345987489
   302   2      1.9653655022438816      22.215520032998818      1.8542461104276748
   303   3      1.9290137657719995       22.13699599765874  0.00052982683965259502
   304   3    0.065213583276911485      22.233039956394176      2.1906781660291572
   305   3      2.0889110630037657      20.320077658064811      2.2719791448137379
   306   4   -0.052068587136543165      20.162525755183474      3.7076415540882204
   307   2      2.0590779072121181      22.294295410001499      5.9605296972824178
   308   3        2.15355659184929      22.435284110758886      4.0664900164359254
   309   3    0.049833920396813738      22.245850787649623      6.1579611981582314
   310   3      2.2401943908897288      20.293227251451956      6.0230008030155435
   311   4      0.1908502763187945      20.391955260486942      8.1107116446276653
   312   1      2.0314488144082632      22.316441848344784      10.117772343032621
   313   3      1.9749253304252838      22.036705574089567      8.0969518332868606
   314   3   -0.066660379797552766      22.126401218114097      10.315666467049107
   315   3      2.1274178479761696      20.289145161054073      10.335586733312079
   316   4       4.005935829364911      11.828627752626504   -0.016367663836616055
   317   2      6.0134151948820094      14.036808320452419       1.999519920706692
   318   3      6.1068734808903589      14.171216381688371     0.10336073653041121
   319   3      4.0610577635583462      14.255828201388349      2.1059352795691519
   320   3      6.0204027889071385      12.186701820962821      2.2027313128239632
   321   4      3.9036540044033572      11.828768386821785      3.8809714197860172
   322   2      6.0744508569473465      14.024769980082786      6.0869329009377058
   323   3      5.9680713029371795      14.443882414573384      4.0831313677702186
   324   3      4.0607842875305593      14.437090653323494      6.2128164988858048
   325   3      5.9049888434286881      12.158561212617659      6.0376110737358051
   326   4       3.827916119574593      11.674628953939152      8.1038341694816971
   327   1      6.0660287568135889       14.10960573645986      10.085624961052929
   328   3      6.1011958756964093      14.330494122358523      8.0276657853921716
   329   3      3.9998950650139729        14.3990801280718      10.094336759860656
   330   3      6.0548978304336138      12.115929412280277      10.464757266227616
   331   4      4.1396992767752776      15.908175985348224    -0.40549360061000811
   332   2      6.0860519039397154      18.118823345493418      1.9949069992100803
   333   3      6.1222009398866479      18.494573693528881    0.069939581064763903
   334   3      4.1363530519747567      18.466344539074271      2.0278053209866922
   335   3      6.0677348313112915      16.245233142543853      1.9881963705021244
   336   4      3.8887657277839667      16.074179845851731      3.8766953759333505
   337   2      5.9634471133746931      18.288921289186689      6.0894174542289745
   338   3      6.0785128433124749      18.274142973413031      4.0639377538881059
   339   3      4.0865259252668942      18.234451895993796        6.24825498965967
   340   3      6.2784389586436209      16.303454397212477      6.1244647112860733
   341   4      4.1417857686149739      15.945051489604106      8.1456874171099258
   342   1      6.0877012136680486      18.261034868531972      10.082755869815056
   343   3      6.3619813379954664      18.281115341837541      8.0550038740894454
   344   3      4.0303867722675717      18.298642898890005       10.14793625560076
   345   3      6.2114134525270135      16.218984922516654      10.111314382917538
   346   4      4.0527147481904313      19.912556358674344    -0.03801174215360334
   347   2      5.9648677444115439      22.304540224515712      2.0610043211672302
   348   3      6.2957400971893858      22.194053826866117    0.020824375117520198
   349   3      4.0511468470108198      22.337503119259797      1.9460897480963149
   350   3      6.1625378707931944      20.388084249463915      2.1898555729007847
   351   4      3.8569270942997913      20.045525602413424      3.8715558811049573
   352   1      6.0501210854262668      22.244137831775724      6.0132407363139775
   353   3      6.0632768155318102      22.632816832487766      3.9750158958466342
   354   3      4.0380099280318893      22.431362296726352      6.2953543932768934
   355   3      6.1581082396638642      20.232232562668134      6.1196772597389169
   356   4      3.7733422407523203      20.420800149050827      8.0405342494076653
   357   2      6.0333594492749683      22.287014466941027      10.072971555408888
   358   3      6.3288093109513648      22.196865751132457      8.1498612072377217
   359   3      4.0966826420987381      22.296298481287458      10.119020418809582