(written by ASE)

1080 atoms
4 atom types

0.0      24.299999999999997  xlo xhi
0.0      24.299999999999997  ylo yhi
0.0      24.299999999999997  zlo zhi

Atoms # atomic

     1   4    0.016215410432437443     0.13050775392244141     -0.4087567218837736
     2   2       2.040137289541021      1.9263165835188119      1.9514363021247472
     3   3      1.8421972746211617      2.1092896817792024    0.056173665438105001
     4   3    0.036034495655245365      2.0540918292990296      2.3069985082581597
     5   3      2.0135728122025851    -0.01330263762833025      2.0079307124567496
     6   4    -0.14332690302321238    -0.15895058920163979      3.7533627281730584
     7   1      2.0640820583244617      1.9763551692349932      6.0632445998049187
     8   3      2.1379572069954955      1.9970550816329253      4.0346875535245168
     9   3   -0.029509134006686363      2.1704621324889857      6.0601667817481681
    10   3      2.0271686791829651   -0.048071513700948643       6.350005491313591
    11   4     0.21787942607623295     -0.1396030034946838        7.91500876208584
    12   2       2.083159370212063      1.9753137194206534      10.061473461428667
    13   3       1.857994524825586      2.0717034282737332      8.1798543916853301
    14   3   -0.033480516253315523      2.0913050923653929      10.453379746888272
    15   3       1.831339630386291    0.043409642432781129      10.144302261998345
    16   4   -0.043737624731598333      3.9072132857817392    -0.40989021446885043
    17   2      1.9885375018192897      5.9203954206312481      1.9300152785785987
    18   3      1.9989240126868428      6.1064500436122664    0.051326440815318321
    19   3    0.025245238639610854      6.1684856949142102      2.1895474453901755
    20   3      1.9873525335287952      4.0385403876948152      2.1442069630778162
    21   4     0.34745321466221224      3.6916007883476101      4.1835652732273179
    22   1      2.0308679583194396      6.0085911490087227      6.0421946975580818
    23   3      2.0503366304045652      6.2611551170738595      4.0105021669241623
    24   3   -0.056151969807347726       6.131420464525843      6.0692419843551564
    25   3      2.0457204814923804      4.0199783948606074      6.1965458028094975
    26   4     0.30678181043590791      3.9327738412916906      7.7965812438665933
    27   2      2.1445544546589641      6.1070303024998616      10.161786215811468
    28   3      1.8755660134161256      6.0217155182317512      8.2058081355532195
    29   3   -0.085929172319042568      6.0083666884627469      10.300931025704774
    30   3       1.932293748721414      4.0185043594124368      10.291661562022961
    31   4   -0.042426659280031746       8.008683800014051    -0.39168529073760361
    32   2      2.0113638892510286       9.987716381876524      2.0020622126521461
    33   3      2.0343702311063891      10.344006120068048    0.060618983399590556
    34   3    0.023597690005542168      10.324897881529784      2.0847832895400251
    35   3      2.0111506393908467      8.1181767010052894      2.0133842857148774
    36   4     0.21828286477569875      7.7567678335469816      4.2019829456422091
    37   1      1.9993759154261226      10.089062573867974      6.0719992833380312
    38   3      2.0190360161212766      10.228949252851232      4.0117877927816439
    39   3   -0.046258654437499679       10.33685090074219      6.1278285377284991
    40   3      1.9604231022048364       8.074590519475068      6.2413436554660633
    41   4     0.33139194939523553      7.9446194836725237      7.9039534344862581
    42   1       2.017052537077197      10.048291484192392      10.166124405878019
    43   3      1.9594153455805343      10.283791380575785      8.1449506247967474
    44   3   -0.097332755333789045      10.363163925373104      10.197746259716093
    45   3      1.8788540322894141      8.0214879571773654      10.146947755590539
    46   4      4.0274241558966208   -0.034393349220758734    -0.38728801811636332
    47   1      6.0367777675882213      2.0446227133502308      2.0015457676266748
    48   3      6.2306853888508389      2.2247847619820682  -0.0081152386735321002
    49   3      3.9849637250938996      2.0380617725770849      2.0428674504837483
    50   3      6.2180609718352677  -0.0037585954816615427      1.8635447207244673
    51   4      4.0302281644232947     0.31508965376752945       4.008087977058012
    52   2      6.1534251915222029      1.9447858254992194      6.1554877702432975
    53   3      5.9499705706737718      1.8347726535172086      4.1148911428317838
    54   3      4.1237815786542242      1.8514252356639183      6.2381127309291537
    55   3      6.2000657375397035    0.029664926438186613      6.3593780701254179
    56   4      4.0509579876127741    -0.02364610489837727      7.7984592779785702
    57   1      6.0761008416586835      2.0287157180250164      10.092525391915263
    58   3      6.2154863577451209      2.3271486581128644      8.0677419054648727
    59   3      3.9775848010628874      2.0316327834426158      10.177035672253089
    60   3      6.1171230872297269   -0.014696061110692502      10.099392696201164
    61   4      4.4593061537219736      3.8414388844721961     -0.2829403130273121
    62   2      6.1151834682520567       6.134334558676203      1.9457714422024304
    63   3      6.0460011961314777      5.9463280255816873    0.059596373546546615
    64   3      3.9948693387871508      6.1320201384968103      2.0939672322436658
    65   3      6.0092657850579316      4.1129595846778946      2.2997593884108181
    66   4      4.2455539357832013       3.923686590609198      3.8889368883382271
    67   2      6.2088539450955009      6.0052051651980918      6.0696318126844337
    68   3      5.8289862081686659      6.1961801600205968      4.1065941619741801
    69   3      4.0592418431404571      6.1945738929775356      6.2360775714693855
    70   3      5.8447569159485218      4.0361200408433113      5.8788752820584191
    71   4       3.981912828941311      4.1222125831549166      7.6657682242235712
    72   1      6.0917054871044352      6.0526850842426798      10.029056041157256
    73   3      6.1386884115890634       5.766500773806146      8.0182012601905068
    74   3      4.0268059788281674      6.0423107524295894      10.184164555266559
    75   3      6.1037120856330294      4.0562289619539049      10.481631177553421
    76   4      3.9277993343650932      7.7514861472250347    -0.33804846585097742
    77   1      6.0002826393208082      10.052481468943084      1.9821605447159398
    78   3      5.9721810762613412      10.384201871311546   -0.051885457215583262
    79   3      3.9583280552690998      10.325898381844022      2.0096878706814221
    80   3      6.1176894043333441      8.0395667259808619      2.0477430994692871
    81   4      3.9370462702118085      7.7082617046649888      4.0744991796804904
    82   2      6.0439519081247397      9.9940983211521495      5.9664828597665469
    83   3      5.9799926305561097      10.060024564703678      4.1002575785735944
    84   3      4.0928976118793434      10.069459523576917       6.280543765008467
    85   3      6.0933749603073268      8.0780155431032714      6.2774378604783729
    86   4      3.8228276017836378      8.0033712085836139      7.7366925744133628
    87   2      6.1009833004913574      10.053599294571022      10.022066782253059
    88   3       6.165726351323352      10.316461806129032      8.1165687322222659
    89   3      4.0887009053669141      10.176855721273059      10.095590772627682
    90   3      6.1192284547312159      8.1105514174426308      10.142596277676507
    91   4        7.66116266958434     0.15723991713524793   -0.021924088583952287
    92   1      10.170126083805254      2.0080754178094007       2.013933601210439
    93   3      10.046469739824605      2.2797013318568227   -0.051750311325128015
    94   3      8.1189155614664692      2.1053772765676828       2.159987615730302
    95   3      10.399667388810007   -0.037648028993164474      1.9130963912707102
    96   4      7.9087508554674457     0.20816150982918183      3.6783040947946768
    97   2      10.215813234861654      1.9751164565418944      5.9694801681889773
    98   3      10.322534419875222      1.8956153806473435      4.0880456408842401
    99   3      8.1198498501892988      2.1892167532346027      5.9878614764711733
   100   3      10.011293186394463    0.045120013024102811      6.3008008418249632
   101   4       8.115119930707797    -0.29517825731561637      7.9305901067198823
   102   2      10.011999803542604      1.9638928511379097      10.094449978973701
   103   3      10.003351703726155      2.3460115616467165      8.1573990318230134
   104   3      8.1475892464186543      2.1831722564209088      10.319333805346959
   105   3      10.114354241750368    0.074843720934335112      10.012883014415044
   106   4      8.0809756652134936       3.674710956559224      0.1386189416785516
   107   2       10.29554102337242      6.0842550057597089      1.9251493476252877
   108   3      9.9685260653957712      6.0523555759257244   0.0099634164844457553
   109   3      8.0567882217718783      6.0268995482318539      2.2352031151709468
   110   3      10.109315244892274      4.0995552642927411      2.2345080707518923
   111   4      8.1302256695534698      3.9340084396707837      3.7047735909712762
   112   1      10.073057811870253      6.0323601156072941      6.0217026980517501
   113   3      10.363904313429307      6.1640249083208962      4.0062985397063544
   114   3      8.0642272223036144      5.9664865082220411      5.9721671163451147
   115   3      10.377332158870525      4.0043703564996225      5.9617852201587285
   116   4      7.9065736886165228      4.0353211916284648      8.2082338353669204
   117   2      10.187600075676913      6.0692143204014428      9.9760851752072028
   118   3      10.025458768820743      5.9207419370812442      8.1134384650587013
   119   3      8.1729414851024149      5.9799318727632924      10.374555128803058
   120   3      10.257189457345527      4.0996009188261668      10.389057177241938
   121   4      8.3161874038799475      7.8212691604372599    -0.44257759747239767
   122   1      10.153155138441848      10.087254861179566      1.9840680430924191
   123   3      10.194472082099947      10.256891728682369   -0.021446174850265308
   124   3      8.0620515335015455      10.195893205346191      2.1000380907054024
   125   3      10.048827996574024      8.0539687826050077      2.0300590151347673
   126   4      8.1698808190879628      8.2495932694392859      3.5734083540378285
   127   1      10.077505529178314      10.106540445299485      6.0158055641993906
   128   3      10.160289581308229      10.094753476775189      4.0226457509680049
   129   3      8.0105772718262269      10.219657675191256      6.1103796367056509
   130   3      10.133773552286454      8.0734227994233336      6.2097932247190739
   131   4      8.4646233568171585      8.2373273385735821      7.8454981693343768
   132   1      10.100463272593148      10.080040460885009       10.16153032883811
   133   3      10.014008795356052      10.161862234609357      8.1185272655318581
   134   3      8.0460633835311732      10.211688347370989      10.329805170457298
   135   3      9.9688424029907186      8.0336356900964958      10.098288022229793
   136   4     0.15498112605845804   -0.046269849056056266      11.889219034248631
   137   2      2.1440002439459289      2.0594355737248811      14.182718119067854
   138   3      2.0194296724625223      1.9186180313729562      12.228084785327813
   139   3   -0.077185254869587896       1.980188479094813      14.100567259800178
   140   3      1.8740413031457015  -0.0063160664096366505       14.36464763289832
   141   4     0.27565496835400038    0.037769479391714267      16.204516293676939
   142   1      2.0807655149822857      1.9940051525087203      18.178471478246031
   143   3      1.7174095020312279      2.0523110923441816      16.157287362701201
   144   3    -0.10868259097151656      2.1172775735263483      18.414983498527782
   145   3      1.7896380282942721   -0.048829574172547782      18.118678207187603
   146   4     0.28220014500754614   -0.083982384062594617      20.040596082926616
   147   2      2.0620457172443745      2.0744019796227517      22.092195468866596
   148   3       2.031831470590193       1.939587262353617      20.220449693851947
   149   3    0.029421585752564726      1.9730244076863506      22.312630266255397
   150   3      2.0316092386676603    0.067281924751994182      22.468791045529716
   151   4     0.27688276683887875      4.0194742318370382      12.073480403534319
   152   1      2.0131635361695754      6.0018953464166689      14.187492067785652
   153   3      1.8789722426111237      6.0854525882354702      12.146136202586955
   154   3    -0.13769587639448955      6.1970827394104271      14.100927010556049
   155   3      1.8130796771028714      3.9610640460343993      14.164245125643944
   156   4     0.25400227630272149      3.9101794418551701      16.167788016654271
   157   2      2.1290721853512844      6.0616640930449854      18.168358509257391
   158   3      1.6904745180654319       6.029835236156563       16.23770426085472
   159   3     -0.1271086122996305      6.0770513633753174       18.42164435849034
   160   3      1.8671461406592329      4.1002706569750096      18.256426549979402
   161   4     0.15730177671427636      3.8627103053061278      19.966940722524182
   162   1      1.9840382780642125      6.0138107939281884      22.213142028464588
   163   3       2.008310101600332      6.2679835676726601      20.162098598586358
   164   3   -0.061613615707418745      6.1961267169652885       22.30598319207677
   165   3      1.9022160874604033       3.997208419488508      22.235804784600354
   166   4     0.26005852204869367       7.833654123801459       12.18125149824065
   167   2      2.1222378734589062       10.04166886093113       14.17451831767954
   168   3      1.8845106369302129      10.174575651278968      12.225995259333102
   169   3   -0.083488677842927059      10.258321935216097      14.167778523472439
   170   3      1.8533148331844889      8.1396866101500418      14.241384964588399
   171   4     0.24139773235756562      7.9425356807796099      16.092926291929295
   172   1       1.984738455552312      10.109762509421186      18.151636374231256
   173   3      1.7836121602644635      10.239440438572791      16.113920733242214
   174   3    -0.12347460355709607        10.3009003547741      18.238746608479666
   175   3      1.7247195026253026      8.0531268789448074      18.100537313147569
   176   4     0.27199691860938524      7.9631714974749901      20.018240575954255
   177   2      1.9817229199718438      10.142917647656292      22.104495751441554
   178   3      1.8231498232464785      10.020844179968059       20.23080759053158
   179   3    0.021625402424264868       10.11249515186732      22.486120827012925
   180   3      2.0345582095256156      8.1794268558020917      22.459950289165253
   181   4      4.2962306406303856   -0.059095749628757306       11.97126490390958
   182   2      6.2081883849377464      1.9752944619525885      14.146407796062562
   183   3       5.878272933716314      1.8043959609498574      12.236497958100243
   184   3      4.0187409798808273      2.0317478491417709      14.381788738883369
   185   3      6.1087118074837861    0.092976992535107134      14.509430105554834
   186   4      4.1949733331499202   -0.020548011637626692      16.411031572040006
   187   2      6.1065343319833811      2.0222638014049727      18.387430716773931
   188   3      6.1472856600040791       2.417958730396478      16.134511255296484
   189   3      4.0962050379125925      1.9464203625566607      17.873865193593257
   190   3      6.1018140672513939    0.074441759527771476      17.892274117848718
   191   4       4.137486849182884    -0.32346623189644153       20.32739638597107
   192   1      6.0891153854693494      1.9712232867094519       22.23394206832921
   193   3      5.9122642601783086      1.8105151277296443      20.232099812238548
   194   3      3.9913808703207283      2.0280332218321875      22.488178894879415
   195   3        6.03557021450285   -0.022418035760107594      22.538456638666116
   196   4      4.3198122048930863      3.9769944426925972      11.862480705459726
   197   2      5.8910314284631839      6.0209675401027596      14.245292270138366
   198   3      6.0662104065688265      6.3886236324761789      12.273478493269355
   199   3      4.0227968513727159      6.1683272076667688      14.324779275148266
   200   3      5.9823152082935289      4.0747848201391177      13.876482056457542
   201   4      4.2855941565421976      3.8756162621421022      16.466696675378259
   202   1      6.0871215051463716      6.0459510781206287      18.164517019791575
   203   3      6.1993973532131745      5.8547567249695556      16.156719677502082
   204   3      4.0007244474375314      6.1755996911205591      18.035910006552022
   205   3      5.8377456574921958      4.0128009512298357      18.364862970923657
   206   4      4.4368664127393709      4.2795575440683642      20.401702253747509
   207   1      6.0698057506869239      6.0674671813409988      22.301212489167103
   208   3      5.9441091240339619      6.2678055614693617      20.184204497484227
   209   3      4.0146535623554298      6.1753432517674645      22.239995573763419
   210   3      6.0082866847060465      4.0387097823972891      22.084429220235485
   211   4      4.3825910061699469      8.0712962323303419      12.006728786773497
   212   1      6.0772627720438601      10.092586732963117      14.180446611082786
   213   3      5.8615818660803196      9.9539199039745601      12.149422826515785
   214   3      3.9976579331464959      10.144157055689785      14.293948515914161
   215   3      6.0314518497998035      8.0657099247846507      14.569539347038816
   216   4      4.2006662991122505      8.0778591776931474      16.172371707919158
   217   2      5.8559491285746601      10.120951815132701      18.282963641041857
   218   3      6.0809091073945201      10.469375806725257      16.246357314858077
   219   3      4.0108850848145616      10.134053330905237       18.13056726570526
   220   3      6.0781972290262356      8.1876822011862043       17.83705644002163
   221   4      4.1593689826035805      7.7487657201126749      20.452021412336357
   222   2      6.1388631440085151      10.100931368700873      22.336227670601971
   223   3      6.0926837578757418       9.926005108368674      20.216453283240909
   224   3       3.993243502335623       10.23864795115354      22.302484020692141
   225   3      5.9413255075277185      8.1547065630559352       22.35538625767219
   226   4      7.9053061426467268    -0.25960172625077732      12.023757025728132
   227   1      10.073650482600748      2.0331092167406672      14.125643056803902
   228   3      10.482739160345048       2.011443360650353      12.085576419090758
   229   3      8.0773633711897794      2.1634409207161536      14.109841093401483
   230   3      10.269090309895157    -0.07668964712453874      14.235876383768943
   231   4      7.8147584745415548    -0.29152365075555742      16.275194911808278
   232   1      10.079038786701666      2.0151087625145379      18.252296232210274
   233   3      10.145012556401285      2.1991218868150355      16.186612333737518
   234   3      8.0244203213299699      2.1342167748043557      18.172986799396696
   235   3      10.277086955064382    -0.03187556203442618      18.211707465086974
   236   4      7.9909961514640671    -0.32573618554807554      20.247101731164332
   237   2      10.089729730075694      1.8973252587068166      22.280051030471338
   238   3      10.435472216243175      1.9279178005666879      20.279774500213602
   239   3      8.1548337824179775      2.0829896953287066      22.171354932149878
   240   3      10.305118011510489    0.013063824926144314      22.329595284387075
   241   4      7.9052704452880675      4.1289674278757023      11.900197329978825
   242   2      10.022022209676702      6.0821771795480144      14.165075695219167
   243   3      10.268710112630353      6.3007411866960581      12.257685764502654
   244   3      8.1483226079401341      6.1521929492508241      14.175325901312551
   245   3      10.328147442781573      4.1726917561639425       14.08042030017978
   246   4      8.2323042527035906      3.6445850670587236      16.290711183986883
   247   2      10.027074378501565      5.9576388027244649       18.24373679211816
   248   3      10.257228931234371      6.0738362362497273      16.222830902234673
   249   3      8.1510785121440463       6.246816780954993      18.236323400198565
   250   3      10.127694556656127      4.1003157971020245      18.348692294076592
   251   4      8.0481573198442256      4.1212730530269521      20.752026923369002
   252   1      10.157600255954021      6.0295413548891599      22.235556772695613
   253   3      10.216935738228939      6.3367624396168392       20.15032403125355
   254   3      8.0910259804806959      6.2195523114717384      22.111980618874188
   255   3      10.099576302456738      4.0393853189907185      22.000847872207341
   256   4      8.0164757100091357      7.9610585366580349      11.809267531883526
   257   2      9.9581697993360727      10.152124859419121      14.115930881730684
   258   3      10.264340901187039      9.9851126124899228      12.228481813382428
   259   3      8.1077306859429594      10.113950114491022      14.237169052955897
   260   3      10.283362613468528      8.1439180337857842      14.411870656888212
   261   4      7.7886995935541794      8.0155727216088426      16.191245453301075
   262   2      10.055977913822176      10.038250749463671      18.225667765037993
   263   3      10.270464180507714      10.295873229902073      16.204982621306684
   264   3      8.1562691799788656      10.115888116693121      18.137329698535485
   265   3      10.343347818319092      8.1473264625710566      18.074912413571351
   266   4      7.8551182829930184      7.7133305923298385       20.30215689824664
   267   1      10.059237498220174      10.148914383451157      22.189320851359518
   268   3      10.329150873282925      10.066965308068841      20.169927589613536
   269   3       8.039068235230431      10.081018882471563      22.370441524650083
   270   3      10.268018897738663      8.1183762659757601      22.363847990043183
   271   4   -0.070551199167209283      11.885219853180391    -0.20044703599360764
   272   2      1.9647383524844546      14.191533894983575      1.8923090121692627
   273   3      2.0033113292942613      14.181765742206522    0.035957934318711936
   274   3    0.066286673062052229      14.271150519731732      2.2444656329700905
   275   3       2.077896771779244      12.262836434286593      2.2250382714641863
   276   4    0.069674300695301991      11.850899866281512      4.0054430743424705
   277   2      2.0251129763952624      14.087839659231024      6.0390863827867713
   278   3      2.2081749588391637      14.318598364336555      4.1577265935430923
   279   3     0.10604460832592993      14.262594123068373      6.1499827558432667
   280   3      2.1831248750766341      12.217428640741421      6.0964641722504815
   281   4     0.14155439807919359        11.7378654884171      8.0863397243911557
   282   2      2.0637468589400645      14.075250681301169      10.093650988261173
   283   3       2.056278558637378      14.218971243919915      8.1458923302542718
   284   3    0.066709268665448213      14.293482658956025      10.211401607604282
   285   3      2.0492056071872375      12.219410497957217      10.263936421989294
   286   4    -0.14459842153111141      16.102852867252516    -0.18427175549636185
   287   1      2.0380442323206074      18.192968048402268      2.0029110720635783
   288   3      2.0581379650693177      18.443981080157261   -0.016850652880155925
   289   3    0.034056343432961329      18.230575507382163      2.3155411382634292
   290   3      2.1075132809697448      16.162467768063639      2.1971330137996898
   291   4   0.0039084571969744677      16.300997756915088      3.7242423778548526
   292   2      1.9583218213331288      18.166538296639317      6.1004734289300915
   293   3      2.2923091475101978      18.244728483979319      4.1852525661919069
   294   3    0.075841883237640739      18.402749215445176      6.0591969900024081
   295   3      2.0703802485123162      16.281922099775976      6.2837246497287031
   296   4   -0.082982687874483124      16.008263411161835      8.1120644037529903
   297   2      2.0894502032339428      18.183637242466659      10.206755997808346
   298   3      2.0239913522367252      18.568113189005334      8.1125773045914684
   299   3    0.022866964332897099      18.547369399279958      10.161257949485341
   300   3      1.9623001704870084      16.277949157335399      9.9928318110512908
   301   4    -0.24592532016589017      20.393446936408488   -0.072066284254508006
   302   2      1.9813120925787857      22.209951108370781      1.8661673284207732
   303   3      1.9421544334518959      22.162936584364871   0.0087760229109151051
   304   3    0.085161564214102953      22.288520964107139      2.1963632445325199
   305   3      2.0835874882055085      20.320527068864127      2.2744645779778141
   306   4   -0.044699132818867088      20.134897419402289      3.7235607807318454
   307   2      2.0716957884977849      22.296266596395295       5.947842564258532
   308   3      2.2036867163499574      22.446447598749902      4.0591079185685022
   309   3    0.070706031771516742      22.276693922944254      6.1134354866759821
   310   3      2.2368582449639303      20.299061272805378      6.0272764421556859
   311   4     0.24026060876394548      20.331937042178762      8.1600908117089173
   312   1      2.0387034260217969      22.305971149057271      10.127395501342622
   313   3      1.9484993352404625      22.076891190983066      8.1004302129838806
   314   3   -0.062375326282991063         22.159473832166      10.338559311397267
   315   3      2.0932602810603567       20.28128150251251      10.330864823171181
   316   4      3.9996003028553555        11.8374152089155  -0.0094474146045247145
   317   2      6.0091167131894085      14.026001254886825      2.0064087045161072
   318   3      6.1031456443555783      14.160031935095404       0.108115446454166
   319   3      4.0642899753994355       14.23934670814317      2.1130488234318001
   320   3      6.0435371363664059      12.177347792179317      2.2147531846828832
   321   4      3.8895237925583435      11.832947397953587      3.8995281531704555
   322   2      6.0709731520460224      14.013702062704242      6.0883556844051796
   323   3      5.9868794533795207      14.429967056808961      4.0875382728556913
   324   3       4.074642885885182      14.423100622129205      6.2174436704762197
   325   3       5.939082278564344      12.140433268870863      6.0471520805035297
   326   4      3.8244181498760539      11.682222005856127      8.1031905660286974
   327   1      6.0728979309810391      14.104600694848957      10.086957233753424
   328   3      6.1135689475881376      14.326555154737763      8.0315469627936906
   329   3      4.0064157886800631      14.392015953561478      10.092395973509936
   330   3      6.0682928637388507        12.1075654736698      10.459742938064988
   331   4      4.1533823814562032      15.910184787962519     -0.4057503764220825
   332   2      6.0929122546540375      18.109604265129349      2.0043439856572101
   333   3      6.1214045016651379      18.478799266673882    0.071402407685274796
   334   3      4.1390272993010813      18.458241585070926      2.0277896929874415
   335   3      6.0682856959528646      16.233757436336809      1.9934162378080931
   336   4      3.8868390386109342      16.083328395712055      3.8807941080796602
   337   2      5.9762258335998313      18.298429298637434      6.1087920126690003
   338   3      6.0835563606134659      18.255672629326721      4.0634186036812636
   339   3      4.0946937186843364      18.240458236209832      6.2433669976329735
   340   3      6.2981487469375512      16.298686601134357      6.1204208117230836
   341   4      4.1550001111581576      15.944581474822927      8.1609119569183424
   342   1       6.092793584725043      18.267459325642395        10.0808181289523
   343   3      6.3603390999506839      18.276308842342598      8.0525605534781981
   344   3      4.0365752331600557      18.302138058756118      10.148588375865348
   345   3      6.2018341638483836      16.217192435170301      10.115028997268359
   346   4      4.0746557668420103      19.906135665711673   -0.030174188615992862
   347   2      5.9704156344895507      22.290006280653945      2.1305797637871318
   348   3      6.2859707549259189      22.194482591592241   0.0073710288670352994
   349   3      4.0663732487671069      22.319940351872795       1.920763719375302
   350   3      6.1923001798428849      20.354115800593604      2.1648254633017388
   351   4      3.8733586051319544        20.0267863279172      3.8806280034279004
   352   1      6.0756675897357342      22.268430467810241      6.0014054804392423
   353   3      6.0318980949798231      22.560753339369107      3.9957779886478693
   354   3      4.0450905847424972      22.393323816741884      6.3382430786566522
   355   3       6.154014539537024      20.237444174362246      6.1158836777572461
   356   4      3.8298140591506167      20.477850658292269      7.9962372790150438
   357   2      6.0532991213168561      22.312932848200408      10.057437706477238
   358   3      6.2747692960370243      22.151509211881574       8.161526165487933
   359   3      4.0969529372205233      22.248036444956519      10.158375730364176