(written by ASE)

1080 atoms
4 atom types

0.0      24.299999999999997  xlo xhi
0.0      24.299999999999997  ylo yhi
0.0      24.299999999999997  zlo zhi

Atoms # atomic

     1   4    0.024292196120674125    -0.29184397737474616    -0.16779630602432738
     2   2      1.9836753547632255      1.9905345211545344      1.9637617771678677
     3   3      2.0462460516114578      2.0460288259007191     0.05292637127239478
     4   3     0.08775717717792017      2.1343287810479725       2.129367265783209
     5   3      2.1011040730949522     0.11106944879472402      2.1879418048477488
     6   4    -0.14162232672975711    -0.19369484604634571      3.9725217726990594
     7   2      1.9488407255891211       1.936480322820139      6.0400598592495323
     8   3      2.1411211856067629      2.2856395261436577      4.0566528545389389
     9   3    0.041113439107171766      2.0744727220749128      6.0149806143419724
    10   3      2.1501706761577308    0.059269136624134175      5.9481402540043593
    11   4    -0.25218210901092436    0.080222649467001181      8.4827607897830131
    12   1      2.0149619027803221      1.9712442871203264      10.113452122668313
    13   3      2.2301391232328336      2.0145966290312072      8.0087058967727849
    14   3    0.013595838634638896      2.0069342835842159      10.026841118136179
    15   3      2.2477785528662007   -0.052730137582443111      10.064398712425975
    16   4    -0.25028710847369512      4.0340446014658333   -0.089222578131008437
    17   2      1.9775104861240194       6.004835129949047      1.9409356349161306
    18   3       2.095727720164489      6.2994195535557935    0.056827520975143646
    19   3    0.087702316971990546      6.1521035891091671      2.1128127154097487
    20   3      2.0757240001981985      4.1244041963494782      1.9928314340549647
    21   4    -0.30174545397874886       3.970025006570046      3.8766114557933267
    22   2      1.8991419845179545      6.0459842504158079      5.9643134971952803
    23   3      2.0890230646488073      6.0921462466648029      4.0645527170104252
    24   3    0.038434671076639518      6.2148010850012643      6.1508554881782675
    25   3      2.0891996155087149      4.1408825138648444      6.1980758873827115
    26   4    -0.25317877241231246      3.7549208829999015      8.3700080643689478
    27   2      2.0721275420588272       5.953514349153096      9.9836889910500073
    28   3      2.1811313634136202      6.2894116218559448      8.0838660847581316
    29   3     0.11260009357692802      6.2967047682345729      10.053037502121864
    30   3      2.0092277395843641      4.0835629331666894      10.041932801948635
    31   4    -0.43802862918563801      8.1597111460141374    0.068958923284263327
    32   2      1.9949690926606831      10.021335588382632      2.0027913216648372
    33   3      2.1682013314734401      10.141330693436938    0.012432315103805429
    34   3    0.073256718361463705      10.167134777194448      2.0358832061570076
    35   3      2.1313927696111157      8.1326898002116206      2.1914476566620205
    36   4    -0.38639577909527723      7.9586410411786543      3.7483349533356831
    37   1      1.9622895547471657      10.091281361250955      6.0676418724638603
    38   3      2.0382446406679406      10.336068587046025      3.9996944583534026
    39   3   -0.063365423620460729       10.32094250561461      6.1472790247208406
    40   3      2.3005254721345576      8.0560559828682727      6.0386981892545526
    41   4    -0.25982473514701893      7.8567204537888413      8.1889491050706784
    42   2      2.0127950799745404      10.048570513207226      10.122845223467257
    43   3      2.1518166558864511       10.13061940988624      8.1429490798679414
    44   3    0.063298185477520488      10.116109205996546      10.012309492180963
    45   3      2.1818497484023918      8.1582017226660763      10.216467286146731
    46   4      4.0109031373735684    -0.34575862575593114   -0.061803544973969997
    47   2       5.988646315158233      1.9578940846499391      2.0116416058046909
    48   3      6.1797033688817811      2.0446331381569314      0.0535510082467998
    49   3      4.0760996714109883      2.1836085702992794      2.0811109044455369
    50   3      6.0773482054466594    0.088598395621876352      2.0812720290180255
    51   4      4.0404306630022155    -0.30774521470336241      3.9284666847406009
    52   1      6.0407870115022275      1.9732932651430888      6.0586063824372518
    53   3      6.1199364918735375      2.2450606750051691      3.9752067626449361
    54   3       4.036387857059565      2.2793308166982884      6.0174195998866553
    55   3      6.2784590622498158   -0.053824879836671877       6.085229338622768
    56   4      3.7748225608559967   -0.072474148781237327      8.2082806774896433
    57   2      6.0434642294048881      2.0307871657469825      10.145472327661047
    58   3      6.1108093917160948      2.1356266991676178      8.1169992643991602
    59   3      4.1144215576831478      2.1761544890521365      10.193990606820597
    60   3       6.071812895844281    0.040818195159695619      9.9345174089811348
    61   4      4.2310496059309477      4.0313057783972699    -0.40832603494827191
    62   2      5.9765641434769927       6.077704775386878      2.0847531669795396
    63   3      6.0841922323185047      6.2939950178119721    0.068631052629259046
    64   3      4.0787070738585536       6.178085068968076      2.0887463593087658
    65   3      6.2078383291309818      4.1321979952687276      1.8611437610319777
    66   4      4.0631399539576272       3.774919005994898      4.1906528210134182
    67   2      6.0116322420884023      6.0804612461285341      6.1834637890792497
    68   3      6.2623962630583128      6.0561558039549954      4.0191886373390897
    69   3       4.105942506148434      6.0666436047614329      6.0112509586485166
    70   3      6.2360486344674939      4.1327062825843095      6.0712565543772659
    71   4      3.9791330421402828      3.6867404667834909      7.9376053798132356
    72   1      6.0416602650101066      5.9872401091753975      10.064227064171668
    73   3      6.1356861303968619      6.1769475859948111      8.0547795704518546
    74   3      4.0005249724495728       6.051719037765344      10.301810781748749
    75   3      6.3011441737206573      3.9897350972174004      10.176536023927991
    76   4       4.068391962605804      7.8452396679760108    -0.19310301266730492
    77   1      6.0429181295389736      10.106850779397829      2.0371433678758621
    78   3      6.2133974306485973      10.132705830199841   -0.044907837507491617
    79   3      4.0176460174994997      10.359550735923463       2.075306728577663
    80   3      6.2746488546355179      8.0713208775317042      2.0919608989023444
    81   4        3.93222135983109      8.2206476123025798      4.2897926247255489
    82   1      6.0756093164331189      10.083830952301152      6.0937921580767025
    83   3      6.1996704524394319      10.219691280768204      4.0459478546790013
    84   3      4.0400980708659304      10.204060588404648      6.0348424994842356
    85   3      6.0722305713232467      8.0585240615888516      5.8979793338222715
    86   4      3.8474572437384884      8.1999082657222715       7.854962212179343
    87   1      5.9927922567902216      10.069717890056594       10.17906929596735
    88   3      6.0611915748504916      10.178002728890551      8.1155168924579364
    89   3      3.9888770089588581      10.373632925161546      10.184517121795968
    90   3      6.0928685955658235      8.0767029209224521      10.240751337790568
    91   4      7.7469028777194655   -0.082837748476408846    -0.12484168064133516
    92   2      10.052734811642514      2.0341859622640919      2.0848285295824627
    93   3      10.282469842519149      2.0410660628489765   -0.066679483874135734
    94   3       8.153942558107774      2.1072050498529067      1.9878986561976806
    95   3      10.285848934407344    0.097470647286579323      1.9977701698049761
    96   4      8.0076897700819778     0.12899538413083111      4.4408872904605907
    97   1      10.144156340827651      2.0163837619198817      6.0756174111465677
    98   3      10.232483591823383      2.2003755686940982      3.9462150712408155
    99   3      8.1180018469927617      2.1322944532693304      5.9747750046799437
   100   3      10.069113300020316   -0.014996559535563636      5.7600984576665679
   101   4      7.7796432934546136   -0.029313543180503415      8.0393948188423678
   102   2      10.107202851529427      1.9515652428051684      9.9477697169757562
   103   3      10.168291408794959      2.0624218920797386       8.089949530865221
   104   3      8.1570944791264814      1.9255365547103862      10.013794864000923
   105   3      10.342333023328425    0.052877656549673802       10.16176750933597
   106   4      7.7434773035359967      4.0074053188879297    -0.10246374704053482
   107   2      10.072598238124975      6.1137978798717025      2.0974265915521144
   108   3      10.312142762845857      6.1902594214711701    -0.08745232550865753
   109   3      8.1942269686945455      6.1344574694316165      1.8877729334485085
   110   3      10.249316159658333      4.0922102378681595      1.8153998378167377
   111   4      7.9306100735195733      3.8194776220672968      4.3213855658759108
   112   2       10.05265193484829      6.0501805020489678      6.1952370470710001
   113   3      10.240249682969257      6.0380009774238674      3.9790057947222741
   114   3      8.1664654687580978      6.1566225506199368       6.034068646883755
   115   3      10.193164088013379      4.1465049551838016       5.998440014574812
   116   4      7.9213948439379598      3.6934598828010681      7.9168183728637436
   117   2      10.054080683773801      6.0121958613240736       10.24197527318274
   118   3      10.258909597711648      6.1933402437672989      8.0716908859310514
   119   3      8.1650531330557943      6.2588966998473721        10.1112034801818
   120   3      10.048345993535849      4.0707047960147165      10.036785466399341
   121   4      7.7618968073189842      8.1265878841448806     0.16362828647658925
   122   2      10.117647157444548      10.197605876007255      2.1412892216129356
   123   3       10.23433758180926      9.9475887267619516   -0.044401661290139505
   124   3      8.2156417112905036      10.090639783398759       1.926260622433704
   125   3      10.312594007112885      8.0787244739113167      1.9570311791219617
   126   4      7.6970804240276163      8.2581432080611066      4.1233441633134396
   127   2       10.11326184701457      10.014285372218504      6.2584386530663112
   128   3      10.177646453107567      10.171670034031239      4.0198794735725034
   129   3      8.1884221381753939      10.163769776782679      5.9999900323123132
   130   3      10.264867917586479      8.0952860228420676      5.9238491591388351
   131   4      7.6669059664434842      8.2387692803298105      8.4762188833506613
   132   1      10.106763882806094      10.045331243710836      10.165851261060022
   133   3      10.202595048318258      10.047275011769022      8.1112626955256673
   134   3      8.0944242286313326      10.122900402036384      10.116186851526978
   135   3      10.434514746041847      8.0159446863121797       10.17553038472963
   136   4    -0.53595595054300793     0.14824543993712816      12.032170767837824
   137   2      1.9256489797792882      1.9116989632753913      14.123515580741026
   138   3      2.0344549533931433      2.2526161669300615      12.182575277927205
   139   3     0.06123634633482531      2.0650057615775732      14.280962819311418
   140   3       2.152493735547135    0.018249181864178472      13.997382280758012
   141   4     0.18036695370862102    -0.20167522757285083       16.59249083801221
   142   1       2.003991801685129      2.0380696135002205      18.235753612032436
   143   3      2.2552336514373841      2.0417893995022789      16.081441723917877
   144   3   -0.010432959990185731      2.1753747507052164       18.16958827790938
   145   3      2.1104107815839059    0.019460101152251278       18.20296252582769
   146   4     0.19940548950255341    -0.43859395172400073      20.226177784229435
   147   2      2.0305020701594523      1.9521067970479926      22.228931512961623
   148   3      2.0174761425553727      2.2235812577577985      20.315839766924043
   149   3    0.064707109965012555      2.1412678563506962      22.338737236279808
   150   3      2.0968604835090181    0.072207671791355565      22.255791218641882
   151   4    -0.27425401180590259      3.7201278328349239      11.867898321552895
   152   2      2.0466603656244757      5.9629547629224984      14.040217954477932
   153   3      1.9555911140373325      6.1066630438715332      12.140361291623728
   154   3    0.075734927391065021      6.2263712669305615      14.310115826813778
   155   3      2.0799113161296736      4.0905619669903093      14.250996336087224
   156   4    -0.13045349226046712      3.7289925542946469      16.130372707656857
   157   2      2.0009651037592029      6.0168645918321344      18.119555815964411
   158   3      2.0675354569410418      6.3052422884801596      16.210100319683203
   159   3    0.087051057073107535      6.2055121583162851      18.248667725449444
   160   3      2.0700819296041697      4.1424117646073277      18.138247120099585
   161   4   -0.028363464709072379      3.7706687834495698      20.083808717660254
   162   2      2.0281497355609637       6.004750650768405      22.153751631015695
   163   3      2.0885294959439866      6.1315386235248051       20.25736258891051
   164   3     0.10826190585326718      6.2321017774298486      22.260040740356043
   165   3      1.9947512199409256      4.1337508552585369      22.482057160696677
   166   4    -0.19721198372431187      7.8828498118226671      11.923156489010349
   167   2       2.024307835895192      10.041671859443582      14.030392866548707
   168   3      1.9754764615128135      10.301915701002907      12.149066548298231
   169   3     0.10494152548274965      10.189693965414298      14.358070247774222
   170   3      2.0117005492958584      8.1681398023580041      14.172768378951401
   171   4   -0.068578444450829459      7.9414771757678508      15.976376705999943
   172   2      2.0684300869736632      10.102643064378212      18.082930587405695
   173   3      2.1029032988320076      10.176879002890859      16.208501873638795
   174   3    0.041119382127963892      10.295954388151667      18.264250552297067
   175   3      2.0573306707828638      8.1900096254977335      18.411050253537439
   176   4    -0.17601858880594975      7.9336124421078207      20.276228289742267
   177   2      1.9714565053884496      10.043776942063824      22.236001848908582
   178   3      1.9991277103805285      10.255477277965225      20.335427083706769
   179   3    0.084218396200832504       10.14739398970428      22.371285959097484
   180   3      2.2082628154721382      8.1519090939649708      22.292290284553552
   181   4      3.9600358600673156    -0.13858651932382146      12.271674999000334
   182   2       6.023717409483222      2.0279167072254092      14.246116459114377
   183   3      6.2696863566286032      2.0129898903648655      12.108064235896533
   184   3      4.1026749915842853      2.0575971937775819      13.905802487856608
   185   3      6.1796920701748643     0.03023196143367515      14.008057342585046
   186   4      3.8623519896183756    0.094626202101265655      16.633248214006219
   187   1       6.076541096011236      1.9976016928123348      18.189577626873302
   188   3      5.9055801868128288      1.9990247650007369      16.131333963290079
   189   3      4.0431101878749294      2.1369365023727758      18.216488504396295
   190   3      6.1242602479684525   -0.036570386915398323      18.306099659485401
   191   4       3.700169091874733    -0.25006355761009191      20.097123300372246
   192   1      5.9989977492600497      1.9931251846516864       22.30153478098876
   193   3         6.1486780801481      2.1710597717660964      20.269583232040855
   194   3       3.982480195281477      2.2445210621343032      22.334858443834559
   195   3      6.2516873442515548   -0.015043705568699637      22.245863555219248
   196   4      3.8649837996712271      3.8065872450901801      12.010375862440346
   197   1      6.0147323814126032      6.0127010557276845       14.17220832186854
   198   3      6.1954637756484843      6.1253624121476298      12.152728624448921
   199   3      3.9624271545712411      6.2528932225392078      14.206991457346154
   200   3      6.1854444404803619      3.9813061356999047      14.098017742132152
   201   4      4.0301252933763028      3.7114664147188825       16.45912947465489
   202   2      6.1732238126542072      6.0178618567602085      18.214056814079335
   203   3      5.9563687257054534      6.2501034178668462      16.245895123057299
   204   3      4.0110522704391478      6.2755353294137217      18.250018073182087
   205   3      5.9759287476339757        4.10806221029023      18.192937145000428
   206   4      4.1914381210203908      3.5694166626409851      20.085973057801034
   207   1      6.0396343315374574      6.1177695250791997      22.268170948224299
   208   3      6.1531912894382987      6.0628270428372408      20.226376316981831
   209   3      4.0055838064757801      6.1119252945493274      22.467142737419916
   210   3       6.158075084446395      4.0899578919843709       22.43896900148863
   211   4      4.3378449389490887       7.743787025330958      11.884335783274937
   212   2      5.9760001339577453      10.010958537668722      14.231928493545222
   213   3      6.1196271937391229      10.235655618578484      12.245426552364338
   214   3      4.0376762604415868      10.199662210184123      14.159254525383853
   215   3      6.0790554350430623      8.1341549571659328      14.183143463294682
   216   4      4.1770792973753563      7.7706570030180071      16.085275906083854
   217   1      6.1029519349638583      10.086869752496838      18.224279122734764
   218   3      5.9796272106991193        10.2479455648719      16.159107448921791
   219   3      4.0150380250706732      10.246493695162378      18.353464031853594
   220   3      6.0126791842470952      8.0980115463903193      18.462329422551864
   221   4       4.137970690356231      8.0267357151708651      19.940938732239349
   222   2       5.972702866459163      10.148807130645078      22.273754575594886
   223   3      6.2693346948091415      10.214792700578009      20.307023580696956
   224   3      4.0809791615654483      10.296126239373578      22.299850808063084
   225   3       6.064394631564098      8.1930002201810712      22.193230034656366
   226   4      8.0381497434254747    -0.14550790140389511      12.329491994268723
   227   2       10.16155009271322      2.0379826387310915      13.982925053770751
   228   3      10.108804882614361       2.205505699414644      12.120976232488434
   229   3      8.1018521092727696      2.0467465019815112      14.342100007976645
   230   3      9.9157859943087416     0.07610094781046188      14.147313434288295
   231   4      8.2683461509399514    0.037472513339490761      16.048003983081131
   232   2      9.9479026214002459      2.0747870678233031      18.230860584216728
   233   3      10.205739441233794      1.7888418710311398      16.296047679103875
   234   3      8.0947082767485092      2.0524625756357486      18.208407764386497
   235   3      10.159477796509822    0.073226810306592741      18.482906798021979
   236   4      7.6193997700052938     0.20712121366508449      20.277195677314619
   237   2      10.032602420480426      1.9588518168661651      22.286609550004535
   238   3      10.137820410945498      2.2246296287062544       20.28161166959562
   239   3      8.1531994189359516      2.1166101400886759      22.296797060586933
   240   3      10.186139570356429    0.065915567688834872       22.22770266089799
   241   4      7.6993661713043533      4.2593123029950988      12.147533798661208
   242   1      10.096732770352144       6.038598910913386      14.149036911660698
   243   3      10.211392190760558      6.0451473511981115      12.140671510033979
   244   3      8.0846674038224542      6.0340085445872784      14.388883731816236
   245   3      10.093727120131364      3.9612994715779677      14.497059972958546
   246   4      8.0962094325594549      4.1879357485104034      15.838723289021964
   247   1      10.062572404458248      6.0764386910304511      18.275873217271467
   248   3       10.26544461762632      6.1683181918878773      16.233051941150176
   249   3      8.0621045967529863      6.1687601356712385      18.079688794940878
   250   3      10.278130760897309      4.0019802802015016      18.138952728804743
   251   4      7.6301980502638571      3.9501996745674326      20.466788293516814
   252   2      9.9666730080251735       6.036734863608423      22.294060120925483
   253   3      10.250503017925947      6.0160599874888323      20.305292275630286
   254   3      8.1162808967625413      6.1515196012278555      22.312676994095092
   255   3      10.242413179701389       4.093381244477869      22.315054600084434
   256   4      7.7298698134566735      7.8922534511558711      12.012070121458613
   257   2      9.9901751765607631      10.222054785326735      14.204733070471327
   258   3      10.269622161861507      10.122830976636164       12.22076625742781
   259   3      8.0852170747894885       10.16115581849869      14.241478810395032
   260   3      10.264780411751316      8.1536325155983906      14.187324644521309
   261   4      8.1713892761432945      7.6795208853333721      15.994708474785545
   262   2      10.095502295313473      10.031342267557489      18.324550314939117
   263   3      10.306489666946311      10.062121293859926      16.179423818300158
   264   3      8.1759643678625213      10.184146636022996      18.079482049663735
   265   3      10.263796375203309      8.1467784694688152      18.310521132695765
   266   4      7.7065619993809991      8.0986284991263666      20.233382432669174
   267   2      10.085015507225908      10.055513162096396      22.380331066911587
   268   3       10.10345704213124      10.245761020373303      20.223973456549508
   269   3      8.1658982562907472      10.040918370379064      22.280442994011231
   270   3      10.261539224536515      8.0862004087351984       22.07611965710824
   271   4    -0.38013435445622151      11.875682973528518    -0.16316171665037976
   272   2       1.950592854756384      14.129003345830752        2.11086714048071
   273   3      2.0286120470365923      14.371893201622511   -0.033243911844920641
   274   3     0.03483922453155941      14.316716668290992       1.936496231046049
   275   3      2.0242884220069923      12.205503465725105        1.82838865203904
   276   4    0.049864777758257518      11.795708353268315      4.1713504752102617
   277   2      2.0334467202086586      14.137130414951933      6.2286981640111998
   278   3      2.0692379095215614      14.104354106711115      4.0049355298193197
   279   3    0.019197377583789602      14.300981393185166      5.9862938834243336
   280   3      1.9538505937839394      12.228407023224827      6.1302623590515717
   281   4    0.048218186160016815      11.847469824922205      8.0440164914880619
   282   2      1.9941141540986369      14.124453633800137      10.286995848175465
   283   3      2.0694629659854136       14.30302230696191      8.0962738446878699
   284   3    0.058059371774720953      14.341561345772082      10.042046227149669
   285   3      1.9586344253357044       12.20019520454272      10.036390291789628
   286   4    -0.14128394876995967      15.905746170557299   0.0046100817557234164
   287   1      1.9612476126434562      18.139462462921909       1.986306445081073
   288   3      1.8300309801637209      18.213547038298973   -0.064281031287062113
   289   3   -0.075916608442856429      18.409955348263484      2.0046674878248862
   290   3      2.2435386138813818      16.116302005359973      2.0791397905575311
   291   4    0.038142420182710982      16.163531375898344      4.3637277005252724
   292   1      1.9881736089531037      18.182613568858503      6.1021357918670347
   293   3      2.1334993512411038      18.311175504930585      4.0233298195079383
   294   3   -0.077224517773629334      18.212434073722299      5.8271711707956007
   295   3      2.0193396138152928      16.136870608985667      5.8131903066738451
   296   4     0.14138774259871853      16.244824211417473      8.5332390113163985
   297   1      1.9817282040103639      18.203575845756042      10.248159561676664
   298   3        2.01647173029576      18.271642796776302      8.1071476952479422
   299   3   -0.056447687757547556      18.209978895011201      10.011555363613946
   300   3      2.1246767151725852      16.172553339266823      10.039568140871065
   301   4    0.046005541129709851      19.897881783026246    0.085622726744278302
   302   2      2.0428213018391581      22.161394353729555       1.978095681862809
   303   3       2.001445281728687      22.515864604161621    0.053300859694575105
   304   3    0.063472912888997188      22.466976280650137      2.0445963808867682
   305   3      2.0131502366008469      20.294156615755689      1.9865579748340465
   306   4     0.18741665258124279      19.822554222836828      4.0794577735482251
   307   2      1.9242012484511866      22.168232050393712      6.0959927713402413
   308   3       2.164644082234219      22.376093090953567      4.0427043367169588
   309   3    0.043183772284982692       22.43480947269164       5.891029196885575
   310   3      1.9807959148428398      20.310646000015776      6.0586915622099724
   311   4     0.12370579217921136       19.92987577465648      8.3753920933010662
   312   2      1.9097310772699461      22.298124920051499      10.227322671160975
   313   3      2.0333902905871866      22.432556044083917      8.0269537899884593
   314   3    0.042223292905363835      22.382643718112437      10.133926482288375
   315   3       2.000950015792955      20.352316602688106      9.9693243207499016
   316   4      3.9917781806185753      11.977114555701663     0.31396820772254203
   317   2      6.0316945154084882      14.148846907674592      2.1819126318196203
   318   3      6.2236137365599982      14.135564588769936   -0.036296794495616222
   319   3      4.0793726648603892       14.07787464148784      1.8406931439669814
   320   3      6.2306343766546126      12.200142783029595      1.8933810278571956
   321   4      4.0618013501019776      11.714714880450646      4.2114403307315369
   322   2      6.0084703677338416      14.136767108515896        6.19362837353611
   323   3      6.0792973653730575        14.1767244923559      4.0618652816651259
   324   3      4.0674987959422486      14.200143827597689      6.0328966178359211
   325   3      6.1749529750646515      12.226753199368241      6.0371956516908174
   326   4       4.121097589087368      11.685121580094572      8.0184679430768657
   327   1      6.0668616339357211      14.170610738542585      10.122767684416033
   328   3      6.1717506392217905      14.207779590438859      8.0663731262799736
   329   3      4.0020431249130066      14.155133039347104      10.293100023240484
   330   3      6.2085841279056044      12.169777094432199      10.252000013087011
   331   4      4.1284898966023551      16.363821659003982     0.38994379651754124
   332   1      6.0787162245641859      18.122592169240416      2.0670091948798683
   333   3      6.0835127339995436       18.28255394400685  -0.0091544029319068146
   334   3      4.0252467363517397      18.266690995772922      1.9228316683854114
   335   3      6.0006428504409772      16.110368740623972      1.8812918291686747
   336   4      3.6431066154737586      16.372911965695693      4.0854534908653015
   337   2      5.9694662086031931      18.117122983970621      6.0767389469120729
   338   3      6.0525231297075219      18.384185730370231      4.1107232098663768
   339   3      4.0850090791041289      18.241248409563017      6.0824457933541494
   340   3      6.1651706045564101      16.219855726548584      6.0516696670952168
   341   4      3.9010749581201458      16.455233512147501      8.5126583162510467
   342   1      6.0982976710565895      18.252597389949429       10.18037378705154
   343   3      6.2108064336796014      18.319659450122202        8.03034855886267
   344   3      4.0543242517252551      18.382724253722333      10.061855172137195
   345   3      5.9695289981250585      16.229271853809255      10.058663246810633
   346   4      4.4072004749662401      19.887194338595584     0.25981065260809522
   347   1      6.0728859092961036      22.276536787389375      2.0474997675751054
   348   3      6.0948702333815277      22.487816432450053    -0.03109997638925199
   349   3      3.9926939392938188      22.484811853008495       1.968419119960336
   350   3      6.1085394967127469      20.265960673107806      1.9622065785974967
   351   4      3.9710457146798364      19.821598630772506      3.7955500403405584
   352   2      5.9514049095847499      22.196755893683218      6.0020602638245588
   353   3      5.9223173892330641      22.322322811244799      4.0989444221692359
   354   3      4.0493184536437097      22.398678159577369      6.1592319639896287
   355   3      6.1591467640945696      20.285357977924505      6.1296230871964239
   356   4      3.7533964229888857      19.888538831067219      8.2915403188441825
   357   2      6.0209905285873262      22.211876666618167      10.121679092997098
   358   3      6.3420364937462361      22.331978304373202      8.0596587646336868
   359   3      4.1167126346582723      22.255955907609479      9.9080165981653501