(written by ASE)

1080 atoms
4 atom types

0.0      24.299999999999997  xlo xhi
0.0      24.299999999999997  ylo yhi
0.0      24.299999999999997  zlo zhi

Atoms # atomic

     1   4    0.037215282164116771     0.01526412713195994    -0.42782949568656636
     2   2       2.100550351320488      1.9347425849462867      2.0042476387152619
     3   3       1.937073218952974      2.1784542948521866     0.10034213814639199
     4   3    0.014754664540965218      2.0733076514002429      2.1938213634233614
     5   3      1.9619457866606351    0.013506288171476328      2.0067424569583392
     6   4     0.17565577800706192   -0.096283998619656613       3.860333048232389
     7   1      2.0792068527227303      2.0040570407612281      6.0553248539133984
     8   3      1.9400257698880534      2.0128262366990772      4.0168685867695784
     9   3    -0.06204802025794548      2.1621154468984742      6.1399883617168314
    10   3      1.8948212991460374    -0.01674486205838412      6.3128719447728265
    11   4     0.19550238206198944    0.037156950608909008      7.9087003161289946
    12   2      2.1421719030620441      1.9984662425654136      10.065536231853871
    13   3      1.8284919184311232      2.1490721697128534      8.1776795900303139
    14   3   -0.046521264125269038      2.0723072235098003      10.432100600539195
    15   3      1.7719695603538574    0.067604438323241325      10.073280405692637
    16   4   -0.012248723714474843      3.8207773658164372    -0.34594863242439622
    17   2      1.9829956959649215      5.9638247302749772      1.9234046903041144
    18   3      1.9529953482985207      6.0501470834010069    0.064444169056280115
    19   3   0.0076069007687947663      6.1769529511750791       2.242165758586641
    20   3      1.9539739564812322      4.0807427130082283      2.2252204969095049
    21   4      0.2199125322075231      3.6811917293561915      4.0807609866773831
    22   2      2.1512171929923634      6.0253966062474795      6.0436838294395576
    23   3      2.0072765481887638      6.2914056013547901       4.134083301306843
    24   3    -0.03732392124268856      6.1454859892357536      6.0566951721372808
    25   3      1.8891184408315143      4.1001490121749455      6.0389339499200725
    26   4       0.233691478564171      3.9263247391687699      7.8901442543117959
    27   2       2.017733807827681      6.1497001538427325      10.131993856160486
    28   3      1.8920257793787809      5.8387270621286458      8.1365041878512017
    29   3   0.0076512589595040016       5.974596339373762      10.377368397417417
    30   3      1.9606574542347568      3.9772167822687972      10.341913440805422
    31   4   -0.098970297579517946      8.0075172823310581    -0.38115819173652199
    32   2      1.9842568202742774      10.013321284694591      2.0444744758570477
    33   3      2.0855639532534016      10.358849327620886    0.025020303292905791
    34   3  -0.0034662342235895665      10.300897450239464       1.915953966816506
    35   3      2.0268160811938936      8.1157042835201292      1.9911138391281142
    36   4    -0.13342767634331271      7.8598878075775174      4.1404619678908867
    37   1      2.0257343522056597      10.075003599580478      6.0148715798321684
    38   3      1.8409776698025813      10.112285126555106      3.9783576486997037
    39   3  -0.0065236425788054763      10.219134119636099      6.2237292016921391
    40   3      1.9265915206139828      8.0215159244564642      6.3942349836696062
    41   4   -0.020799952976656405      8.1757010614467571      7.7268173685360315
    42   1      1.9675350085821663        10.0745095463443      10.156659181041613
    43   3      2.1123846705920504      10.256287568771301      8.1233587594181902
    44   3   -0.088113220730772782      10.352088044032316      10.117802483805191
    45   3      1.9855020318712551       8.045305212044763      9.9656624069975663
    46   4      4.0607886699195683   -0.026751150479790126     -0.3567093690021409
    47   2      6.1568699196315606       1.961867848462665      1.9543237863293417
    48   3      6.1218742076748542      2.3509864608647182    0.081440780636849244
    49   3      4.0464327824158257      2.1749279768309004      2.0748125744096733
    50   3      6.1184404780713466    0.086230965852793107      1.8714904119970441
    51   4      4.2055375698465713    -0.36554766722298609      4.0619159028187033
    52   2      5.9620996337338434      1.9941486841102267      6.0937611452662486
    53   3      6.0848045547806286      1.9887295087217718      4.0586467274916442
    54   3      4.1041158952536243      1.9456111332394606      6.1520484904546962
    55   3      6.3442504437720029     0.11106787967749221      6.1758670042759665
    56   4      3.9621465803173859    -0.28074213597015318       7.978466075635926
    57   1      6.0985504472365175      2.0190043034606568      10.124040536493174
    58   3      6.2518273154558495      2.3126372734787677      8.0265703720353496
    59   3      4.0207786111122665      1.9340909124513803      10.090276994534014
    60   3      6.4033459578199503      0.0291480000122443      10.041875009434177
    61   4      4.2874934530751778      4.0297564046727237     -0.3778295498082046
    62   2      6.1947270300887869      6.1432842546834481      1.9687774285807589
    63   3      6.0295381700824935      5.9340985860531212    0.089579905706324028
    64   3       3.943269320655566      6.0765776302204131      2.1588282128663256
    65   3      6.0087206932576747      4.1394693831807112      2.3635713368493709
    66   4      4.2310360757137735      3.9956110678205281      3.9048187670783703
    67   2      6.2170225839027511       6.036646660710363      6.0815711443106055
    68   3      5.8259426334416844      6.2660957398554027      4.1045761980364244
    69   3      4.0313344571849488      6.1259830193118319       6.203146376760575
    70   3      5.9862275185084473      4.0863502639762563        5.81602823124362
    71   4      4.3736204045952274      4.1766668042414388      8.3337473041401786
    72   1      6.1176906391710055      6.1229466392608281       10.02775679333565
    73   3      6.1179957052268348      5.7754097513740321      8.0069097948652797
    74   3      3.9886305377617424      5.9146276609099013      10.052292610079443
    75   3      5.9913962503719693      4.0628284564981634      10.333166707766765
    76   4      3.9993974365588136      7.7802846876873506    -0.29488978436236302
    77   1      6.0473064232651197      10.042481297509967      1.9513525838489947
    78   3       5.944349010241333      10.400160031910051   -0.078379925469149903
    79   3      3.9590814347672749      10.272265444387918      2.0616688742627538
    80   3      5.8656891410792724      8.0402549998823769      2.0168063459738801
    81   4      4.1665096949789904      7.9792655180623715      3.7747525900955656
    82   2      5.9685532855006054      10.019159907767513      5.9841392725471669
    83   3      6.0845001871852507      10.095756350522691      4.0910537488262637
    84   3      4.0672771473650311      9.9607917044832206      6.1159659440986083
    85   3      6.1646076508613845      8.0855289867202931      6.2249087631955122
    86   4      3.6889373426325873      8.3993221269849574      8.0264285732215104
    87   2      6.1146188181012437      10.118052441856655      10.027786807938787
    88   3      6.0343974117281691      10.256614664754579      8.1089480117825818
    89   3      4.0677366776707631      10.112194682932987      10.204241144636745
    90   3      6.1057234866365926      8.1317850768830624       10.13918519758618
    91   4      7.9249486572205505    -0.18270284927920658    -0.27416891267781363
    92   1      10.132579559747086      2.0090697585253317      2.0190958155805334
    93   3      10.076556465667851      2.3498466266473685   -0.025365798164557234
    94   3       8.065896282958402      2.2533705288488943      2.0966538554443024
    95   3      10.222251933038415   -0.010055420136187983      1.8671629959255602
    96   4      7.8160397051105912    -0.30293340552515596      4.0935309119237404
    97   2      10.106060180687468      1.9406040129991033      5.9710248386280247
    98   3      10.315796105269579      2.0629353180202883      4.0814202076710133
    99   3      8.1782556196623712      2.3325860645311991      6.0235312721066192
   100   3      10.049339479222578    0.023125868782044898      6.1556257566922046
   101   4      7.8385926643417356    -0.18666961016598624      8.1364107871169331
   102   2      10.068489102391533      1.9297957546214752      10.109920220205829
   103   3      10.041047398958598      2.3154265445971887      8.1231882945545877
   104   3      8.1800608132942862      2.3159893041076005      10.202494635770995
   105   3      9.9515885056041675    0.068511937973449871      10.041671548292502
   106   4      8.2533113771336577      3.8401337585455049    -0.10604207021426357
   107   2      10.334726053779475      6.0493968189629115      1.9777271979588664
   108   3       9.964276642551452      6.0497626975711825    0.049726845272894588
   109   3      8.0698865507928641      6.1238686077114162      2.2161693298370557
   110   3      10.151748281227579      4.1470284887680107       2.248374113408846
   111   4      8.1312691011751159      3.8858852714217438      3.8933681716907476
   112   1      10.144758818021456      6.0479334120510631      6.0345239948330223
   113   3      10.217060343615927      6.3750947698811027      3.9738878273172862
   114   3      8.0836391420957394      6.0385733630054279      5.8680466563438598
   115   3      10.471266451060197      4.0423203781868198      5.9619228217871463
   116   4      8.0776096532126687      3.8627160441258752      8.0955934058216013
   117   2      10.187921516614663      6.0873111801820308      9.9633240216429009
   118   3      10.020251506657953        6.05904607766605      8.1003530199476934
   119   3      8.1674636310552842      6.0182749469302124      10.386890538661623
   120   3      10.264936000973595      4.1244213910455985       10.30981423599156
   121   4      8.3640040008264407      7.8478777416093379    -0.45495441850408097
   122   2      9.9927789307235368      10.120567793751039      1.8881608704255382
   123   3      10.273188621566195      10.240798305444832    0.010391463034236418
   124   3      8.1122321266287116      10.269597718702659      2.0230177812781549
   125   3      10.067909066248601      8.1525434980205276      1.9072806228139227
   126   4      8.4370852878771316      7.9414334825509973      4.1472442849676643
   127   1      10.064794358127951      10.146869620253865      5.9713891946161528
   128   3      10.244477641741238      10.041492364406928      3.9569576954503507
   129   3      8.0087641600114754       10.23555208805195      6.2044570427735586
   130   3      10.005907809124617      8.1222611920611101       6.107265477757414
   131   4      8.4150337142189127      8.3754168441049437      7.8483011971407857
   132   1      10.127021091346048      10.122012848572982      10.145305591475948
   133   3       10.12728875743046      10.126642127984486      8.1002740654991641
   134   3      8.0666088307675974      10.214811647214065       10.24968121327028
   135   3      9.9895994127029013      8.0655148300829076       10.25357430371081
   136   4     0.10218687461296393     0.03362215995317356      11.827107603161322
   137   2      2.1341716511615454      2.1114659262318658      14.135236157431434
   138   3      2.0529787600426652      1.8181688540801406      12.205666268121819
   139   3   -0.067483854573162624      1.9507349981595994       14.12738849442708
   140   3      1.9495618746997427   -0.023943546015762564      14.402346977421846
   141   4     0.30514041627061056    0.091788973892579478      16.188249463728614
   142   1      2.0616023294012273      1.9925632021528887      18.179516073361157
   143   3      1.7383871430214326      2.0696429457801098       16.15096080092545
   144   3   -0.092395699410161125      2.1625976949645409      18.364165741231385
   145   3      1.7692969989670722    -0.04517464006059306       18.14865601738973
   146   4     0.26786730624151817    -0.15477398639681239      20.053173871392495
   147   2       2.079238448681195      2.0547143238966137      22.117792672716238
   148   3      2.0062555369546975      1.9327908561031575      20.241201079037662
   149   3    0.055652215185757498      1.9612363088316842      22.378520439085843
   150   3      2.0749444028627071    0.069880465453532881      22.505337968965076
   151   4    0.031102082026469746      4.0416311077348546      11.869210620839612
   152   1      2.0078652827060726      6.0146387090622397      14.160944926538878
   153   3       2.041676727716625      6.2197983098807548      12.116531992335732
   154   3    -0.13072876633482902      6.2601571656724309       14.07744951575911
   155   3      1.8627355989826131      3.9779796187725909      14.151611184431873
   156   4     0.24334543751754256      3.8719910956374823      16.207906598976077
   157   2      2.1379080764169598      6.0351371840773123      18.178349771295785
   158   3      1.6645568808936546       5.989011154310437      16.252430189541624
   159   3    -0.11950751878443212      6.0784871543747361      18.455628809816229
   160   3      1.8472631261139882      4.0952135680983091       18.28514463397995
   161   4     0.19964729003249859      3.8436476905071904      20.017051693988442
   162   1      1.9799699400291504      6.0162450943004897      22.232566420667229
   163   3      2.0396668685164956      6.2612961090690105      20.176664503789038
   164   3   -0.051501291475277308      6.2415600231073594      22.251757937560004
   165   3      1.9114501622137201       3.993765446629189        22.2523848561788
   166   4    0.090795364577494306       7.725820952843125      12.107910439973484
   167   2      2.0677885567589973      10.020175148651168      14.132164868169761
   168   3      1.8699123975928071      10.078207455563025      12.222261721662193
   169   3   -0.066129063594457582      10.196361044480025      14.341601944932847
   170   3      1.9484603692184996      8.1401244206409942      14.390743782938758
   171   4      0.2333428911897826      7.8792119576623314      16.126880540613083
   172   1      2.0081567814142267      10.078374640922728      18.203383545462607
   173   3      1.9820579680665558      10.392140360638615      16.158682528003439
   174   3   -0.084474666919188576      10.320375450536829       18.16922399237253
   175   3      1.7749458834137826      8.0365698988563015      18.092124914021319
   176   4     0.30369143689027722      7.9286959545007232      20.074836805221647
   177   2      1.9994907281144056      10.105825939255757      22.162743216251638
   178   3      1.7822207108471877      9.9961116413795015      20.261047626187722
   179   3    0.018142707508078448      10.071113110510826      22.515261328222032
   180   3       2.093121074561699       8.154913701879865      22.453713499626769
   181   4      4.2440938192803905   -0.059638731246206445      12.025232315120135
   182   2      6.2679996937166704       2.060505335338946       14.12086455232539
   183   3      5.9590101467228598       1.792448882111944      12.216723963245974
   184   3      4.0080828160627391      2.0220722570486092      14.389405883247333
   185   3      6.0471381091140568      0.1008237304249566      14.485420932402107
   186   4      4.3061609195114663    -0.21044096355872458      16.102159005719219
   187   2       5.937814113520866      1.9770593774879561      18.355766932277753
   188   3      6.1696901258643049      2.3537205236556193      16.173618029193449
   189   3       4.070255028472201      2.0419822309498481      18.004246782585874
   190   3      6.1535333701612176    0.081021426116950929      17.978650781813581
   191   4      4.0723288590203568    -0.30749292003796269      20.242970338743383
   192   1      6.0966165826476431      1.9862068161966695      22.273721020328821
   193   3      5.9465864195608766      1.8918823385167125      20.233286399498525
   194   3      4.0085751161170187      2.0422572880284826      22.490222470758741
   195   3      6.0331524591664758   0.0064252756057978774      22.625939584649583
   196   4      4.2937377824509628      4.2442235024488149      11.911782179634105
   197   2      5.8980887261673942      6.1430977381704546      14.182167952773179
   198   3      5.8991484626193404      6.1945464676842548      12.207738789492421
   199   3      4.0260885978247103      6.0499157829308574      14.447404220874141
   200   3      5.9938555327060072      4.0544650942285312      13.980064324022619
   201   4      4.2798883000731776      3.8937332892969505      16.282445142078114
   202   1      6.0399708960681533      6.0776873770618245      18.214441698342959
   203   3       6.249669737980792      5.8595579195457859       16.14598946878623
   204   3      4.0056552728470791      6.1110072477023945      17.986419715665711
   205   3      6.0750967223738792      4.0134371217029106      18.265384226790086
   206   4      4.4712488734433835      4.2736454666883397      20.421040740242969
   207   1      6.0908887759192725      6.0718211612140536      22.311320593781343
   208   3      5.9062185777044807      6.2177351519591264      20.223605770900772
   209   3      4.0159942241992779       6.082063608012473      22.307240659469958
   210   3      6.0186102123620744      4.0413056855499017      22.120620908704591
   211   4      4.3347937564279171      8.2471322963811602      11.922769928236363
   212   1      6.0594214432793656      10.096793740099759      14.147846847184466
   213   3      5.9920058606351736      9.9313600707591725      12.122219669341172
   214   3      3.9662496804831213      10.197663334335685      14.263743818947297
   215   3      5.9425201191207018      8.0537897459614154      14.436888274034633
   216   4      4.1290848626884644      8.0493688787031719      16.155009577196545
   217   2      5.8885520009579722      10.088222177468229      18.287805906907504
   218   3      5.9938920155228592      10.426951839162685      16.244365357464787
   219   3      4.0252987529623381      10.183525341429165      18.143124138176862
   220   3       6.036877646566281      8.1661181625091235      17.892795997810982
   221   4       4.193017934965896      7.7454121671097296      20.493123462510809
   222   2      6.2078681223056709       10.07224197244318       22.29951331513109
   223   3      6.0628244993533169      9.9585829931333461      20.228438889831313
   224   3      3.9911135231802186      10.326953641036113       22.24034237710195
   225   3      5.8162687644863542       8.155619451431356      22.396668740155835
   226   4      7.8571940992246834     -0.1722835375451777      11.931483676008082
   227   1      10.086141800297307       2.013855335407206      14.148086231936325
   228   3      10.450406736341444      2.0465757562673632      12.071160705613149
   229   3      8.1080363395166408      2.0506887825930482      14.065714956994043
   230   3      10.298230381869431   -0.078689816002784935      14.239420183734543
   231   4      7.7955680661875686    -0.25274916733574626      16.165111865837108
   232   2      9.9866645896716513      2.0543153004682217       18.16602680812391
   233   3      10.167989988408456      2.0916390392109565      16.269887143246812
   234   3      8.0994220245656852       2.032218520068199      18.300216443488349
   235   3      10.224866537204084   0.0033158342874957821      18.313215818813582
   236   4      8.0619714240233691    -0.32800260341664494      20.227902563043902
   237   2      10.183997403735269      1.9142733018375586      22.315882315816086
   238   3      10.352041795778218      1.9193833913559324      20.268656959943865
   239   3       8.162363728011826      2.1093756762445315      22.293353435918885
   240   3      10.219733926285338     0.02120559141743519      22.404270876591447
   241   4      7.8924646760497721      4.1537706284565337      11.806053188609184
   242   2       9.965060563093278       6.056872878749159      14.184165729632692
   243   3      10.351999852988273      6.1627675223744625      12.244077963245513
   244   3      8.0912632188948681      6.0952251069960974       14.06700750203426
   245   3      10.358082921858452      4.1411940566426972      14.130050415907098
   246   4      7.8718767881037364      4.1896180223081076      16.595760860127371
   247   1      10.122176002887734      6.0117236107192786      18.187995806297963
   248   3      10.150740430760967      6.1459824802290166      16.135182548136548
   249   3      8.0975804969045502      6.2043532822296976      18.179957194676401
   250   3      10.184030275469356      3.9689724009465106      18.396968303331189
   251   4      8.0249138771764024      4.0379478821243975      20.689286982290696
   252   1      10.155980854009934      6.0129101653051906      22.273378077470976
   253   3      10.264466497630762      6.2084799475419166      20.221734506971835
   254   3      8.0923055547235894      6.1963119371929292      22.172239371551505
   255   3      10.042778068012229      4.0275122393077725      22.019027328179529
   256   4      8.0454259869079348      8.0827206220638566      11.763437386679504
   257   2      9.9365319227171955      10.151238948082373       14.14454584951212
   258   3      10.243865234788981      10.086496952127249       12.22430578291981
   259   3      8.0958653967957037      10.100381872753223      14.233233797208861
   260   3      10.314536529284052      8.1224918414762559      14.250445360315585
   261   4      7.9338243616790525      7.8445007682125114      16.476229029451261
   262   2      10.052759469169343      10.035250297328387      18.265316801581015
   263   3      10.297745758153248      10.207259999373296      16.191033725405177
   264   3      8.1308999878333541      10.101969273510747      18.083152437578423
   265   3      10.263752462808668      8.1512746629750499      18.122809636556749
   266   4      8.0908766248731787      7.5025135337892639       20.19740343441315
   267   1      10.077662598060481      10.149929422569134      22.241832725139794
   268   3      10.245672674555207      10.128664999922318      20.186598955416155
   269   3      8.0630374968088567      9.9712790960288107      22.331587535906262
   270   3      10.278231622828212      8.1113786121881351      22.412728962161577
   271   4   -0.061515200768923577       11.84818816693044    -0.17036531178192516
   272   2      1.9878887816136339      14.152193064688147      1.8958482136256525
   273   3       1.938784528392417       14.16403505184438    0.019283437816831197
   274   3    0.020638872611658251      14.277345415231466      2.2183691856140126
   275   3      2.0416183504038976      12.211489592958149      2.1770767049905322
   276   4   -0.018795039634801117       11.72739460193495      4.1931352640254937
   277   2       2.020249489006865      14.039671577822727      6.0569706060128201
   278   3      2.0668747370018385      14.361727504540688      4.1466587534289419
   279   3    0.048134802426819938      14.232477100423012      6.1687417818634165
   280   3      2.1234231640461849      12.178427000867474      6.0668166724342711
   281   4    0.084183409135450624      11.712504513581903      7.9635953703011904
   282   1      2.0114399736003459      14.170669444781801      10.127431120559946
   283   3      2.0647080132532634      14.240038344124448      8.0731784195942069
   284   3   -0.054753731433576508      14.202191419752868      10.347461308082101
   285   3      2.1476878161583368      12.162387604860644      10.308231972444052
   286   4    -0.01400773789220003      16.019527504817653    -0.24410742152664391
   287   1      2.0212309977294431      18.182156436501817      1.9833217380595938
   288   3      2.0842495966681813      18.475840249382323   -0.028756701255228723
   289   3   0.0063557063941488282      18.291359495860519       2.288618927807947
   290   3      2.0018090547460341      16.157629407310363      2.1396610363956068
   291   4     0.12474134751283471      16.205167802271667      3.7111383960905693
   292   2      2.0230478862525838      18.159867818789053      6.0275921000943571
   293   3      2.1477548031551978      18.274482526604157      4.1450064416359869
   294   3    0.082626043084212675      18.484250406454944      6.1603421888525878
   295   3      1.9282491157124422      16.292353127230594      6.2437735564554044
   296   4    0.087636303377890773      15.911438413983312      8.0255019689264113
   297   2      2.0720715760294177      18.167929477632843      10.184611066618231
   298   3      2.0182732570892057      18.545869575385744      8.1212498095992576
   299   3    0.049331286781713682      18.604951995443269      10.162924102780558
   300   3      1.7866977467163001      16.284199399531197      10.077721333987089
   301   4    0.070692293995154351      20.343343175927387    -0.38091280344840622
   302   2      2.0836737623797053      22.198113047649173      1.8870692573293293
   303   3      2.0038475476588924      22.165699618156356    0.022274509679877378
   304   3    0.062592992730788569      22.304842999987265      2.2309932108946806
   305   3      2.0391228230697989      20.310818672912411      2.2725965704106765
   306   4    0.071882003417973531      20.118562421737376      3.7701908938816269
   307   2      2.0209816319368907      22.268080156926803      6.0595721851505875
   308   3      2.0634335930786039      22.504841872792102      4.0968337586514396
   309   3    0.048237896343979209      22.221617771600577      6.1658731341298347
   310   3      2.2722686827400183      20.311441014859199      6.0351952988677802
   311   4    0.034749844053946301      20.129606862172647      8.0259067348628648
   312   1      2.0459459722004878      22.334580042863546      10.121453170720931
   313   3      2.1937056281681913      22.215251507105279       8.085530395849025
   314   3   -0.031393122842809124      22.158200589406675      10.345105468665455
   315   3      2.3143573616055062      20.307063811764706      10.228364562836679
   316   4      4.0290274293781971      11.862983451682224    0.018809664177464984
   317   1      6.0324361474736863      14.200932266538109      2.0556775465036052
   318   3      6.1380211380878329      14.112253716974241  -0.0021683021754727956
   319   3      3.9748352321520928      14.200834980865821      2.1586945049397728
   320   3      6.0810782548972462      12.153359467030333      2.1885532942194272
   321   4       4.149179705148903      12.068577156446809      3.6392936552831321
   322   2      6.0711682499678732       14.04288850025425      6.0920230655025831
   323   3      6.0099174092793142      14.399501630962581      4.1270776071594648
   324   3      4.0310220586155374      14.439442892057736      6.1166314854043033
   325   3      5.9139612896673848      12.142626466400364      6.0238334508604341
   326   4      3.6218795779683433      11.987111768644841      8.3082166378373223
   327   1        6.06129665024035      14.116760060306641      10.092083058396149
   328   3      6.0587221774636015       14.32231402287481      8.0489147786578368
   329   3      4.0332514001719462      14.390502796136902      10.142666513063554
   330   3      6.0012955726897594      12.104551756852855      10.405219837783395
   331   4      4.2399973323690254      15.711031194366404    -0.28476463138554742
   332   2      5.9742403934991559      18.145720064302196       2.005440477236573
   333   3       6.100494576720183      18.490966810922739    0.048572785170767845
   334   3      4.0771885967442554      18.394852567490226      2.0381484608193761
   335   3      6.0927916828849762      16.241086601985753      1.8791095564941129
   336   4      3.9828603949656713      15.918515179194724       3.868199555924674
   337   2      6.0068728852458531      18.303023614775565      6.1619182050947536
   338   3      6.1293939284250714      18.103897916470448       4.013738031435496
   339   3      4.0849444244257533      18.174094929431138      6.1618624520134526
   340   3      6.3382320795920482      16.273640253291571      6.1155190796551508
   341   4      4.0430965748588985      15.793580213293712      8.2640031279280954
   342   1      6.0528166471242866      18.244623038124825      10.107202308591123
   343   3      6.2859870756431588      18.312820141971734      8.0400531888379696
   344   3      4.0091300876599307      18.147387456003258      10.091865301018858
   345   3      6.2727154995618681      16.211366909353199      10.120483044375776
   346   4      4.0295125758217978      19.941490354573933    -0.06137711170353348
   347   1      6.0482498992096341      22.267383869635033      2.0179001067076601
   348   3      6.2880417922021445      22.134538271923265   -0.019171017345711205
   349   3      3.9922483227979488      22.314256393108124      2.1455982554709561
   350   3      6.2076051193228396      20.214709946363946      2.1837628339315382
   351   4      3.9816873497886034      20.143684182628348      3.8456206307686474
   352   1      6.0565072935075159      22.212191945464305      6.0764611929114407
   353   3      6.0725151012365863      22.555887051646096      4.0535541430787623
   354   3      4.0452079355347843      22.575407625185953      6.0724223323963296
   355   3      6.0323881863083804      20.204499588024255      5.8182960996099453
   356   4      3.7473734959739105      20.259660372902868      8.2341306687508524
   357   2      6.0262526906954603      22.216521248902268      10.087375255717873
   358   3      6.1352755788307318      22.368605997530803      8.1276523593821519
   359   3      4.1024934007711522      22.650525597194367      10.107904058627312