(written by ASE)

1080 atoms
4 atom types

0.0      24.299999999999997  xlo xhi
0.0      24.299999999999997  ylo yhi
0.0      24.299999999999997  zlo zhi

Atoms # atomic

     1   4     0.16946657960880851    -0.11655075352497556    -0.26982677493197804
     2   2      2.0674118857023203      1.9268645828173203      1.9811419657627565
     3   3      1.8094659726790752      2.1335357286020371    0.056550846344064112
     4   3    0.016081500630949305      2.1201150866862419      2.2466434657444809
     5   3      1.9596671125204936    0.035722574921633526      2.0512859793423335
     6   4   -0.047382738658592896    -0.28694980969434397      3.8109109004151054
     7   1      2.0289046655976195      1.9937770750253461      6.0119238481268447
     8   3      2.0905743474989471      2.1797319610189918      3.9958689833695478
     9   3     -0.0418547640745126       2.199300801945709      6.0778946014926154
    10   3       2.074660312788835   -0.015926039412706375      6.3128440773940993
    11   4     0.30379578268502733     -0.1424267273884838      7.9085189695459377
    12   2      2.1094032216171792        1.94874431687642      10.095121957218574
    13   3      1.8390811821358575      2.1673111973864652      8.1935160466460726
    14   3    -0.03198601304424066      2.0961446917629658      10.401797344000427
    15   3         1.7994409704881    0.053289590349580362      10.064796071783608
    16   4     0.14418970161314948      3.9919138476553813    -0.28293611190749013
    17   2       2.053242204690608      5.9773748918626115      1.9350847966299427
    18   3      1.9125794070115656      6.0586539986079124    0.061498974708912947
    19   3  0.00027148802749706838      6.1946021841084224      2.2457552789394173
    20   3      1.9108448829910629      4.1014616473451522      2.1200051474280173
    21   4     0.17881307414173728      3.7038243569428362      4.0204026852875527
    22   2      2.1176387795272817      6.0617499012592182      6.0025044308803777
    23   3      2.0038819798568941      6.2572035456670063      4.1095282553228545
    24   3    -0.02187709265704435      6.1909876039994103      6.0492689032376656
    25   3      1.9285843877814999      4.1433867463444631      6.1412743927497155
    26   4     0.20312371713289953      3.8611657941761943       7.867812071084213
    27   2      2.0756585720026317      6.0156890871386075      10.107847001036259
    28   3      1.8233486951638234      6.0074197811665311      8.1667652577359409
    29   3    0.027369809808693326      5.9891917606986427      10.417043030600787
    30   3      1.9433704826812106      4.0385383829695538      10.334543551622225
    31   4   -0.020693301145198215      8.0348933668599223    -0.37413635622217473
    32   2      2.0114684047388569      10.014024381879063      2.0081963423616731
    33   3      2.0800949085141895      10.351232489921578    0.043123268902600473
    34   3   -0.015971966813361247      10.357084641070697      1.9677907613028216
    35   3      1.9497806601355341      8.1210673117565726      1.9970703342756402
    36   4    -0.03177801911379264       7.864619728982122      3.9990050759906892
    37   1         2.0169009219406      10.087916150443634      6.0149865440516432
    38   3      1.7922455625962994      10.119180631549037      3.9818031858783809
    39   3   -0.075789401326635086      10.292729828713528      6.2564351503664497
    40   3      1.9830025737168986      8.0542880438685547      6.3686515497261125
    41   4     0.34006912119132543      8.1281235393377802      8.0747409484935986
    42   1      2.0306734428282591      10.054709231333151      10.176184723300864
    43   3       1.983220251103746      10.257731503577732      8.1330966230804105
    44   3    -0.11521492920571713      10.344144877501012       10.11365957794683
    45   3      1.8191539867720776      8.0295279439768645      10.040572256413164
    46   4      4.1670174934789053    -0.36955665498798118    -0.11620886548745339
    47   2      6.1498590152699721      2.0169973121763358      1.9717564262172884
    48   3      6.0732663051014288      2.2294451150069179  -0.0048432299484478048
    49   3      3.9964280475215572       2.142208350497119      1.9610802563194532
    50   3       6.069727894728195     0.11031994003121226      1.9951081019485175
    51   4      4.1926504445518651    -0.16719073330149115      3.8605286180893996
    52   1      6.1035517612054226      2.0146968361299935      5.9940243390419159
    53   3      5.8740770834754983       2.028168072314267      3.9748866507734197
    54   3      4.0450531100572933      2.0898411598933908      6.2446384618043052
    55   3      6.0907164327890495   -0.011300854204657004      6.3193199672110829
    56   4       4.079416650323834     0.18856899796246387      7.6598554587584289
    57   1       6.082267330845494      2.0076216047059874      10.134830209737407
    58   3      6.2203636988080948       2.233260379994237      8.1299956601320584
    59   3      3.9945376270642758      2.0512245612256907      10.079380842235159
    60   3      6.3034310504956013   -0.036781562996361275      10.006414268187731
    61   4      4.1865026588150602      4.1974131145693736    -0.39728459902167362
    62   2      6.1560233719007433      6.1285523736609866      1.9346040360174492
    63   3      5.9961926312778946      5.9971982888906812    0.053586965966690436
    64   3      3.9586581703483752      6.1157413253899788      2.0711293217556563
    65   3      6.0087169901644133      4.1373388025871032      2.2519408126368816
    66   4      4.1567851019306028      3.6510126252159596      4.1176596774838288
    67   2      6.1652721743400898      6.0866495131662415      6.0015406386770938
    68   3      5.8799035910938207      6.2784932484578775      4.1192679469873399
    69   3      4.0077448785483787      6.1523302685254633      6.2957719596097323
    70   3      5.9691989155288177      4.1499233887837725      6.0555163880097158
    71   4      4.2930784864601552      3.7054096655120645      7.8609150785007298
    72   2      6.1354710843681941      6.0137259151592408      10.060203303087054
    73   3      6.1185896083606748      5.8879421367912821      8.1653247196761072
    74   3      4.0433711547270663      6.1600961579379119      10.189686424069205
    75   3      6.0214944231530412       4.132745848084598      10.463050095974003
    76   4      4.0593783316768448      7.8533792874053079    -0.31357728265225726
    77   1      6.0859234201070658      10.066444264841586      1.9680989214819131
    78   3      5.9136787143291629      10.385512533606805   -0.083171821931482759
    79   3       3.954216108122679        10.2175778573767      2.1425742620953563
    80   3      5.8729666158760043      8.0475356967751743      2.0247380359689573
    81   4      4.2694856809464561      8.1886915154311186      3.7895051136859843
    82   2      6.0875363395104491      10.153474365397875      6.0137313284085554
    83   3      5.9950980823508457       9.924743021490789      4.1246220578631201
    84   3      4.0764627051536921      10.072987446666414      6.2612924638787897
    85   3      5.9810913564660657      8.0964988574738914      6.3514464748181707
    86   4      3.9846603596650878      8.2299684374191422      7.8508258485421329
    87   2      6.0431498626749685      9.9717909275953804      10.231318993710062
    88   3      6.0395140100093698      10.376060807459474      8.1406265802036746
    89   3      4.0875706260980014      10.223867503179033      10.139609572400447
    90   3      6.0862632668908452      8.0781940365148568      9.9254225438918162
    91   4      8.3623931063062216    -0.25677363653746743  -0.0034956837289290077
    92   1       10.10004781307622      2.0262127525189908      1.9709181180910993
    93   3      10.052285498265858      2.3711128807728468    -0.06356039711668264
    94   3      8.0423964054688177      2.1771126747684022      2.1598730091949636
    95   3      10.081100290164519   0.0050892205927697718      1.7452730504418594
    96   4      7.9961297891196939    -0.22928102520842802      3.8273157867631364
    97   2      10.101630017287507      1.9692027972828083      5.9038683219610242
    98   3      10.263591174635533      1.9671313932308689      4.0397651422834446
    99   3       8.174027227062334      2.2008751334270511      6.0861385688954623
   100   3      10.081631996563887    0.055132484886736777      6.2802831349389683
   101   4      7.7232832759061223     0.14971850262409347      7.9890941123891874
   102   2      10.052606032851937      1.9936063575977612      10.093625902682003
   103   3      10.039802005759078       2.320315756986596      8.1881092083847378
   104   3      8.1682577898863791      2.2017560500099438      10.342576020156729
   105   3      9.9945756640807986    0.068564519249251971       10.09367414422112
   106   4      8.4209118777884893      4.1503468401398553    -0.30887564835514181
   107   2      10.311364629335602      6.1071538509894703      2.0091087791272524
   108   3      9.9775642320411873      5.9386205167699435    0.052836360869064229
   109   3      8.0436451626428358      6.0823551114289316      2.1692024273403554
   110   3      10.080856272231586       4.139445405088849       2.330485152657773
   111   4      8.1519692087278646      3.9937490865990641      3.7689716025857845
   112   1       10.10057297465033      6.0485550321722545      6.0964563254192567
   113   3      10.137085058128031      6.3601543219162613      4.0022802904043564
   114   3      8.0398869624264435      6.1131468241303617      6.0085896561181933
   115   3      10.369265682899696      4.0143196669426535       5.921370165267783
   116   4      7.9448422458503671      3.8082417989859989      7.9006510174328133
   117   2      10.260044777303305      6.0876589585104233      10.016390406079795
   118   3      10.033982458191325      5.7936897134528209       8.154747432575288
   119   3      8.0556520363435613      6.0225678887835139      10.368946812999493
   120   3      10.224259294352157       4.052461732129486      10.464071888060404
   121   4      8.3661327876792217      7.9003599541489429      -0.390536900881994
   122   2      9.9753141990469754      10.172488499032903      1.9950926306855357
   123   3      10.391099529505235      10.194619333829673    0.035947574530732593
   124   3      8.1136211791665822      10.176242594654315      1.9532279420558274
   125   3      10.144059159047778      8.0946154783945836      1.7893331310710057
   126   4      8.4356066659931486      8.0688966851798796      4.2618862166975822
   127   1      10.058930348516231      10.184471681895911      6.0537519918927627
   128   3      10.155057566952035      9.8321749830584757       3.967464395488113
   129   3      8.0247113105174499      10.058825871198916      6.1781400870971481
   130   3      10.072939119078082      8.0975496219994056      6.2034985573404686
   131   4      8.4006451557692987      8.3730671762582638      7.9918356169815237
   132   1      10.076752519136106      10.075700828463395      10.173029824723178
   133   3      10.241176886216325      10.166018844326418      8.1051925497338448
   134   3      8.0362256934336305      10.287112997728052      10.041674164731559
   135   3      10.002793995549791      8.0218680419042983      9.9656556052655176
   136   4    0.092727120953998793   -0.043902406180028546       11.83826878644401
   137   2      2.0968761879651785      2.1125840342009683      14.179529568231585
   138   3      2.0644863681039736      1.8869649173028151      12.205506136128554
   139   3   -0.071603665967720331      1.9326424990943054      14.138367357762876
   140   3      1.9974515026261974   -0.028610922694839187      14.409530385166329
   141   4     0.34807642551711188    0.018503490213833282      16.194240904154892
   142   1      2.1150965061464784      1.9673383690356783      18.201775200897423
   143   3      1.7501913842400676      2.0652399320262691      16.179038837321926
   144   3    -0.10261751114652722      2.1545969996013357       18.42522577369947
   145   3      1.7867350870006589   -0.056968025256525542      18.167967901131306
   146   4     0.29994351796401564    -0.13513053643935954      20.057721599345392
   147   2      2.1339802354023898      2.0157581858379285       22.16397723792322
   148   3      1.9953917582370564      2.0063812009179096      20.277474285993115
   149   3   -0.022537558711231677      2.0056834864419311      22.293850688078884
   150   3      1.9754797948649649    0.087115671985250845      22.453480080164191
   151   4    -0.04052731452863205      4.0544502140470193      11.853498619072727
   152   1      2.0232794399894907      6.0148163565635038       14.16437974908667
   153   3      2.0808819440328206      6.3218689139211888      12.147400125825753
   154   3    -0.12339431273031212      6.2526093180555469      14.143158618231862
   155   3      1.8594549464821246       3.993132212208987      14.190226223323632
   156   4     0.33511748218525705      3.9505596702102967      16.234130212908347
   157   2      2.1634574323976081       6.107667499309577      18.185131741412121
   158   3      1.7599309484272108      6.0316917773386587      16.242302905052522
   159   3    -0.10532936726487578      6.0923863484443075      18.402052939658887
   160   3       1.892148558738276      4.1173065104935418      18.243273712457665
   161   4     0.33359165920558609      3.9234345528070378      20.028142981506257
   162   1      1.9917219117276002      6.0493476371079877      22.225435756704979
   163   3      1.9853480020544716      6.2209465646064954      20.186068842869975
   164   3   -0.055805454873635446      6.1977388681094574       22.31319936102075
   165   3      1.8786038680856358      3.9968384288682635      22.335746999269965
   166   4     0.19952827241829268      7.8264406969152063      11.974443251820301
   167   2      2.1103364761310521      10.085591289562814      14.160431712326494
   168   3      1.8109973505068915      10.078735418955564      12.241758823906466
   169   3    -0.09451820192518974      10.183230441375262      14.383597757583743
   170   3      1.9561380254483856      8.1813646452518292      14.380531979502351
   171   4     0.25239933001454978       7.909720983246844      16.083024260799817
   172   1       2.022025309547105      10.096746766215297       18.19918867790852
   173   3      1.9651998677226956      10.408545380326128      16.162010858031991
   174   3   -0.090638750514616381      10.302108283374585      18.160586590638175
   175   3      1.7682846175176956      8.0641520374703735      18.136705479062726
   176   4     0.30204308711904426      7.9665577301505568      20.090908919040434
   177   2      2.0289620310469219      10.145073034175434       22.17031164265504
   178   3      1.7649681088858395      10.024392829129944      20.271545646320764
   179   3    0.016323333097445401      10.075229583248465      22.527752168698072
   180   3      2.0575904507538416      8.1720448205616218       22.45435428013468
   181   4      4.4464451208653468    0.086455053489780789      12.351277570684013
   182   1      6.1104094477555444      2.0248105725805585      14.195892722010683
   183   3      5.8795963055659559      1.9084632110982207      12.159308954430887
   184   3      3.9888759005110428      2.0444009505975225        14.3190054010197
   185   3      5.9796704937420406   0.0011012112772374714      14.363978276853375
   186   4      4.3213798542797033    -0.24795106093373134      16.024731815631963
   187   2      6.0642305387031987      1.9123997047345398      18.285092265831569
   188   3      6.2148626177791231      2.2847566166020856      16.239297272922329
   189   3      4.1264389504124876      2.0239729249680782      18.031752846866883
   190   3      6.2060940133247628    0.032914346188256664       18.09639911459676
   191   4      4.1241708183249264    -0.41728807292472647      20.343455185040828
   192   2      6.1803535761183044      1.9835794784416805      22.288842608821209
   193   3      5.9290020288224641      2.0093885573610373        20.2902056887737
   194   3      4.0207431241236486      2.0957145638960739      22.423547671188448
   195   3      5.9569895731904614    0.086188885170420115      22.401498258402906
   196   4      4.3347496506625687      3.7233963962278769      12.135006443578607
   197   2      6.0881712357306466      5.9921014260184782      14.222144176943576
   198   3      5.9899115896856951      6.4319646629540221       12.16065609167401
   199   3       4.082200759312486      6.2870980550711089      14.178825017885263
   200   3      6.0582727180353517      4.0976703863429949      13.874701920353786
   201   4      4.3459987429733822      3.8440357731054364      16.445775733508096
   202   1      6.0996222907182176      6.0943157387765563      18.168296253879333
   203   3       6.095846585069447      5.8825838150778864      16.141996638958453
   204   3       4.028629742668298      6.1521396558257182      18.108005902264782
   205   3      5.9205947454463352      4.0527900803776395      18.319047238969578
   206   4      4.5232314660317829      4.2538730576937818      20.212205369453972
   207   1      6.1085301406097097      6.0482394770946462      22.272955282985741
   208   3      5.9562442710908732       6.259450920031413      20.219362218836455
   209   3      4.0141783904917787      6.1184388025787104      22.365769208336413
   210   3      5.9361736257610014      4.0130298515758884       22.18875310371774
   211   4      3.9994444777490559      7.7649729557488136      12.255084631416654
   212   1      6.0375709531147006      10.121720712605681      14.152997107006263
   213   3      6.1864222855197291      9.9713669514749199      12.125482838089285
   214   3      3.9889679884704599      10.208108916716874      14.250925731140891
   215   3      6.0430304779108477      8.1138957421778386      14.547833556085317
   216   4      4.1947126906445176      7.9741034979529299       15.99363957180878
   217   2       5.911013102245672      10.065866539526878      18.275619657603716
   218   3       6.022436415356994      10.503431137734465      16.244301744897815
   219   3      4.0464756676259608      10.242778394067024      18.190670284817926
   220   3      6.0954167641779557      8.1834230028805699      17.849904437891823
   221   4      4.2360726227205046      7.7645328251072758      20.477503090074144
   222   2      6.2075590470868329      10.114065134052812      22.330502371408819
   223   3      6.0932183809270573      9.9077034955799004      20.219486096621846
   224   3      3.9925421879540863      10.334932071830046      22.183648473880666
   225   3      5.8126412999619355      8.1806427828851778      22.366202571709234
   226   4       7.871664999897833    -0.17741545860761926      11.958287324666079
   227   2       10.07913359075429      2.0167080600668932      14.194898171922643
   228   3      10.410173752653344      1.9236889444891092      12.177122577534789
   229   3      8.1675946062458937      2.0519424845339787      14.065288165590857
   230   3      10.256834864507299   -0.015525881550003477      14.373005972280964
   231   4       7.737094417896671    -0.22418818572999227      15.961708026067022
   232   1      10.115747413947641      1.9437693157086029      18.195759402884125
   233   3      10.057709553179764       2.292073437711287       16.17134161274786
   234   3      8.0573583175117083      2.2674516658453516       18.30900047899117
   235   3      10.151505789952047   -0.060944734381776146      18.186610362536147
   236   4      8.2231295666001376    -0.40137873534109292      20.196659784613409
   237   2      10.280114243025343      1.9535886322801772      22.282798696282445
   238   3      10.185769832908681       2.056518856642398      20.297040026241405
   239   3      8.0654805400866483      2.0371209113616735      22.197271791787628
   240   3      10.110465207540381    0.065309664265370659      22.490251740381343
   241   4       8.020128699929991      3.8583708825675491      12.132511002502978
   242   1       10.09543688701558      6.0247146040802528      14.202933866206461
   243   3      10.196621292665256      6.3108562856522861      12.155137015261797
   244   3      8.0484396927266211      6.2489970866595721      14.059060286283176
   245   3       10.25807351379585      3.9933707286798135       13.95159475336739
   246   4        8.06863779325443      3.7228534215402371      16.381430775438851
   247   2      10.022734443216297      5.9981379398563508      18.151006754710956
   248   3      10.258327841020746      6.0857462334593579      16.240970676933326
   249   3      8.1381895568495004       6.176180467871907      18.234560652667152
   250   3      10.157659276509918      4.1213156787627465      18.413943530577896
   251   4      8.3854455262236982      3.8246879618111831      20.219575794747254
   252   1      10.175434459365123      6.0197873772256667      22.213120350724964
   253   3       10.14200761317772      6.3747043864423114      20.162662557785211
   254   3      8.0952014296004133      6.3004762329377089      22.264328563547544
   255   3      9.8952659651006467      4.0314207469281724      22.129023949666227
   256   4      8.1941760182278127      7.7671425997236092      12.186658120848641
   257   2      9.9555695995369433      10.173950447941818      14.153835117604235
   258   3      10.220033133277944      9.9910881166656438      12.219915255411379
   259   3      8.1043993272038968      10.066470582966431      14.330488058751321
   260   3      10.342134089204901      8.1939803415553492      14.315830315600969
   261   4      7.8411274740838541      8.0427804099569506      16.075408358070572
   262   2      10.064016611324588      10.038123103201647      18.254380312774927
   263   3      10.339128360661274      10.291553399477548      16.197064913610365
   264   3      8.1615908513102546      10.156081623877435      18.074516350258193
   265   3      10.284113601013122      8.1543216039218844      18.074528818019733
   266   4      7.9955066731412074      7.6340337408642878      20.348413083990639
   267   1      10.080687856046966      10.150577397245529      22.244408842810987
   268   3      10.246297044942061      10.058525285113921      20.179579965579027
   269   3      8.0672781726745288      9.9599190284798809      22.339816020303857
   270   3      10.290689954989181      8.1157469933618405      22.445198122717784
   271   4   -0.027728798111482735      11.903133416837592    -0.25234227640050411
   272   2      1.9890239983710261       14.14153021639045      1.8918762140744594
   273   3      2.0834116856426732      14.196972373783824    0.015863426209223101
   274   3     0.04802764052420086      14.279149757899624      2.1660104485956562
   275   3       2.019707640743555      12.210843213218366      2.2132251625997985
   276   4     0.10714025813705436       11.87879192045474      3.9167173792517351
   277   2      1.9426802864592887      14.043148388243498      6.0411081667424602
   278   3      2.0374195581523642      14.383923974626615       4.139120234613312
   279   3    0.014483407989102953      14.259642033223773      6.1811753379653451
   280   3       2.043837687679118      12.180840432719709      6.0508757930972479
   281   4     0.28440424313510337      11.822525573800139      8.1565947591783008
   282   1      1.9662550477064609       14.14992250813969      10.115777466318546
   283   3      2.0453594463431246      14.234202617411203      8.0599034577005781
   284   3   -0.085340878548589544      14.273908909906663      10.286928890751147
   285   3      2.0172198883149117      12.158723262238203      10.329059079715249
   286   4    -0.14038088910881535      16.126729538337514    -0.22965152787828774
   287   1      2.0196037856990245      18.204990938828686      1.9943395866974907
   288   3      2.2605413411714084      18.225946907274771   -0.032084418104244103
   289   3    0.015921600540732501      18.217629687247268      2.2428145389714302
   290   3      2.1256515672782892      16.159449494504024      2.0676052502552484
   291   4    0.019996838627723359      16.284354200102356       3.675702818969496
   292   2      2.0776759277835715      18.121286929442856      6.0116453764906126
   293   3      2.0944994550215141      18.149156734673852      4.1186749202525954
   294   3    0.053283851013588443      18.363292083636686      6.1718667304218435
   295   3      2.0064565917993171      16.244207567906692      6.2862535578862566
   296   4    0.072677273660441036      15.963959804971081      8.0210287151418562
   297   2      2.0300166609614148      18.185467771872396       10.21604683929877
   298   3      2.0147440960995997      18.520431683201672      8.1189826348300169
   299   3   0.0023938473376140775      18.453775337063004      10.184226461035124
   300   3      1.9482313767989987      16.270152846005708      9.9645790093169833
   301   4    -0.20452025153331144      20.476579487344708    -0.14742058988458864
   302   2      2.1018528832357957      22.125361903359504      1.9697102975486058
   303   3      1.9991870715297935       22.31864274151496    0.074240856204257216
   304   3     0.12712122602238579      22.252482871279081      2.2415265121735684
   305   3      2.1615963033164318      20.250926407977065      2.2054661498252077
   306   4   -0.037924503282654232      20.109872166071511      3.7146523669755389
   307   2      2.0351719475221639      22.217137477760026      6.0521248343087892
   308   3      2.1986084458249033      22.479052569910586      4.0876695900186846
   309   3    0.043446716699994441      22.390699264290578      5.9562969438401092
   310   3      2.0366076827049349      20.293157667690757      6.0000830986236346
   311   4     0.25032270317079303      20.135616124755451      8.0092296741642279
   312   1      2.0517635488558437      22.300847403425458      10.051345992332688
   313   3       1.787290926915764       22.20583345159838      8.0348501066079674
   314   3    -0.06124669556272562      22.253544961674049      10.402525973820111
   315   3      2.0167186723922867      20.276226834520219      10.345684247873075
   316   4      4.1670852347603757      12.010782471351273    0.024740564328652542
   317   1      5.9957149325227261      14.172000681674481      1.9710131098150303
   318   3      5.9989458665282749      13.811556426146062   -0.079771018655660469
   319   3      3.9837826429021308      14.166730299658571      2.2146021600793122
   320   3      6.0202259239201714      12.114829309305421      2.2330069644224957
   321   4      4.1810309201520948      12.111761938290202      3.6909864501949121
   322   2      5.9425679685963413      14.177861288311201      6.1341333791641599
   323   3      6.2387346660479306      14.239703749193186      4.1113923283258123
   324   3       4.040383667493904      14.300904611009528      6.0913802518883999
   325   3      6.0631663321499856      12.143601732865706      5.9314812457009047
   326   4      3.8246292143605709      11.744868251857323      8.1165171410591768
   327   1      6.0786448664666688      14.145604862055137      10.138861425450614
   328   3      6.1411344110457309      14.098198120977898       8.059402861439489
   329   3      4.0185113630214806      14.297053088346562      10.206050293957345
   330   3      6.0772611785597768      12.124175610721336      10.362594817094344
   331   4      3.7485405774892913      16.253355451631357   -0.088618523108380767
   332   2      6.0548985160273538      18.153656442017994      1.9433222251363393
   333   3      5.9986978446900929      18.435228951768512    0.025061637208600617
   334   3         4.1017616811397      18.173997269180202       2.182838614009643
   335   3      6.1982578949874689      16.198037747764513      1.9834015322963399
   336   4      3.8777666870888385      16.084256906500027      3.7332279459212598
   337   1      6.0533618655666439      18.150961574811411      6.0501073931913183
   338   3      6.2543666433305312      18.109152875915477      4.0252460803081016
   339   3       4.011171059084333      18.329380647586817      6.1533805799226808
   340   3       6.313254058834687      16.108940711510542      6.1220423633175312
   341   4      3.8926492517533626      15.781362708692384       8.360243865139859
   342   1      6.0154588302644365      18.237069139237832      10.099388231674087
   343   3       6.166508080954566      18.359948974090255      8.0732426260321848
   344   3      3.9962965220649487      18.361218527107876      10.054799834780521
   345   3      6.1646252943937982      16.198113110525902      10.084790596726849
   346   4      4.1159552319176189      19.973073245690248    -0.17550353073784886
   347   1      6.0843570686951614      22.204561307560759       1.998772940156847
   348   3      6.0685847519557701      22.331173834091789   -0.030275651005621487
   349   3      4.0321512606072512      22.484104865406646      2.0569733361236455
   350   3      6.0108258198054623      20.191058225299315      2.2791704977164948
   351   4      4.1404164618493109      19.959511818845701       3.857637208349161
   352   2      6.0653440740876894      22.190488358227157      6.0288626632029665
   353   3      6.0139867419251347      22.566279581972456      4.1162237915674984
   354   3      4.0902939399125859      22.374748128345662      6.2144144546288311
   355   3      6.0860463924409505      20.304461038837019      5.9055738695302464
   356   4      4.1972079126944735      19.799172088443974      8.0244123217602485
   357   2      5.9537936185655616      22.289944078697552      10.041823245086302
   358   3      6.3208917705154404      22.190245092174997      8.0914598518781453
   359   3      4.0877192904137871      22.267372914316041       10.04442618191187