(written by ASE)

1080 atoms
4 atom types

0.0      24.299999999999997  xlo xhi
0.0      24.299999999999997  ylo yhi
0.0      24.299999999999997  zlo zhi

Atoms # atomic

     1   4     0.12008060994758592   -0.034078482480896552     -0.3340824849367145
     2   2      2.0694860995464013      1.9171389203339122      1.9762930372276761
     3   3      1.8309100697531051      2.1320169998232905    0.065126488595313919
     4   3    0.034735995649730539      2.0771992232041314      2.2522835225264672
     5   3      2.0082926250632962    0.014848769373321387      2.0441974423003697
     6   4   -0.074027197545025444    -0.27578838796847366      3.7829291708136674
     7   1      2.0308790328226003       1.984039442914298      6.0145644692189046
     8   3      2.1012480368486379      2.1687547123156135       3.997253125089649
     9   3   -0.030124680027077445      2.2007076556024945      6.0771983418854498
    10   3      2.0646059106234396   -0.032036397598810704      6.3385811741606028
    11   4     0.29328164687941122     -0.1476561888158387      7.9337424173085438
    12   2      2.1051136346704107      1.9350922158724029      10.106080065939587
    13   3      1.8268913305131544      2.1716154344216103      8.2093642559096551
    14   3    -0.02777337572737576      2.1067254537503395      10.411561411108362
    15   3      1.8040998153034793    0.048926737412183258      10.080194069070801
    16   4     0.14869402147672509       3.993631792323618    -0.30023382222779954
    17   2      2.0375462903464832      5.9675993025763532      1.9284939216143007
    18   3      1.9073931510333701      6.0579116894985514    0.054218166776703207
    19   3     0.01231559901152827      6.2156860888684911      2.2126275426212763
    20   3      1.9152206249615904      4.0900516347928448      2.1148823164577046
    21   4     0.18713918511251718      3.6938265789900013       4.024293125209101
    22   2      2.1027323480156141      6.0759580627965351      5.9796280591577204
    23   3       2.037525391968237      6.2353861407231026      4.0965527854581545
    24   3  0.00036945685135302204      6.1866065409180688      6.0818466406393483
    25   3      1.9515105500162286      4.1484977585810201      6.1576376360793263
    26   4     0.18264434810827959       3.854408297407272      7.8341907871093106
    27   2      2.0198822497750251      5.9763371741233424        10.0941117039629
    28   3      1.9183449184525918      6.0189742203858456      8.1953611083096245
    29   3    0.053240581593863405      6.0296114610371525      10.418060376496745
    30   3      1.9710529990589698      4.0578297581956875      10.356431090082824
    31   4   -0.032874440004990083      7.9768930725865808    -0.32764751632801592
    32   2      1.9943454991129195      10.018154410657001      2.0420995957236188
    33   3      2.1103659550609657      10.380971475412643  -0.0020755569827744023
    34   3    0.015455326423809585      10.295797897202631      1.8508847193464821
    35   3       2.024983505985618      8.1322494416203792      1.9655296686633035
    36   4    -0.21300402510867533      7.9612093588112334      4.0728460796189401
    37   1      2.0344704430907479      10.081432724643784      5.9901933897312141
    38   3      1.8268522370769198      10.136486038520671      3.9632684607415816
    39   3   0.0065682729051875586      10.230308049738143      6.2351385368191332
    40   3      1.9834673498126798      8.0680036304404297      6.3514980435030939
    41   4   0.0039863009353881271      8.2201729415249769      7.6876579568946122
    42   2       2.059154947372174      10.084651955310905      10.097151877624901
    43   3       2.012159715936531      10.303813881224524      8.2130538884997932
    44   3   -0.045365232434548937      10.331517904112822      10.184022058876563
    45   3      1.8887743562284485      8.1507170122299861      10.131045986384965
    46   4      4.1675006455616135    -0.17136837600195898    -0.35698297186431166
    47   2      6.1244425113766843      1.9501832047071377      1.9657105312473921
    48   3       6.138603438623262      2.2531238847277426     0.04804328245261931
    49   3      4.0136834060558568      2.1457454379659278      1.9620257478143119
    50   3        6.06210622203964    0.059735018451606156      1.9901971698455811
    51   4       4.207453247790637    -0.21963523931745008      3.8923117622519907
    52   1       6.090345877881715      2.0162678586306866      6.0036241417189506
    53   3      5.8988226696545514      2.0535083399481628      3.9827672057877157
    54   3      4.0353107316625936      2.0741954025664162      6.2524371382456119
    55   3       6.101561230736599   -0.015732631422334473      6.3279983901164583
    56   4      4.0896839249965158     0.18590830758967525      7.6890709579457965
    57   1      6.0489181017922276      2.0266329898968936      10.106467965643803
    58   3       6.210946599853199      2.2039556563525409      8.1012880470481186
    59   3      3.9862524141162887      2.0601997446418818      10.087749728800214
    60   3      6.2638503409363331   -0.035728256860752962      9.9972681815586917
    61   4      4.3578992288596003      4.0513924016016523    -0.41117698262358943
    62   2       6.171101372355019      6.1005375013400656      1.9319442258316157
    63   3      6.0373785694703939      6.0459223444406831    0.039900415375704837
    64   3      3.9598778015709484      6.1303098529030713      2.0727991943751167
    65   3      6.0262253222060584      4.1439724001197211      2.2269577395060924
    66   4      4.1461010258336328      3.6467180599986588      4.1023788357642754
    67   2      6.1760592538233636      6.0531078893090546      5.9923918782654351
    68   3      5.8708021896227942      6.2804435005655073      4.1048451472435756
    69   3      4.0035564973360023      6.1871014456021376      6.2762325608692899
    70   3      5.9069136718166497      4.1553105721741321      6.0281492823239313
    71   4      4.2630778961459415      3.7143076459837276      7.8318836399769847
    72   2      6.0743248696865519      6.0349654327750839       10.03225978100202
    73   3      6.0959518817280873      5.9543522521177179       8.147506872774704
    74   3      4.0370048029996415      6.1947337520149262       10.22696540771857
    75   3      5.9977194922311616      4.1409203708514033      10.418674392082645
    76   4      4.0916632872991237      7.7918878071340192    -0.28936759946801632
    77   1      6.0599118708844264      10.055007869437219      1.9671778541772749
    78   3       5.905735467292665      10.383542112058683   -0.077064948603775912
    79   3        3.95583661898951      10.315009544300175      2.0637225485594444
    80   3      5.8596611876878075      8.0472785518293257      2.0200276158305899
    81   4      4.2349567262041514      8.0803443149530843      3.7362111948755348
    82   2      6.0880039539555337      10.115524684354952      5.9509626857621587
    83   3      5.9914171957472409      9.9953186453420528      4.0789719166231295
    84   3      4.0594971580852057       10.08632874979943      6.2742616708765597
    85   3      5.9665847976477639      8.0947289943974994      6.3186599677755835
    86   4      4.0067824458281684      8.1781452828448629      7.7890878402629795
    87   2      6.1547523294037543      10.000114527698258      10.205103534938065
    88   3      5.9477022609843582      10.331059557590928      8.2068172325593789
    89   3      3.9939990280738136      10.175908996820088      10.278716507337958
    90   3      6.0605533646801391      8.0916249253072543       10.01250794052871
    91   4      8.2864304401502391    -0.32047448173698329     0.10132976833846981
    92   1      10.100945152297944      2.0049570756921518      1.9871209488489614
    93   3      10.041530423418036      2.3392653299641215   -0.067283963863378982
    94   3      8.0425323398808857       2.173965874016714      2.1305156361541928
    95   3      10.092043559901276   -0.018177469316925536      1.7269306034238199
    96   4        7.97400228108945    -0.29030395284858468      3.9505725128669389
    97   2      10.030447396425268      1.9748554323604197      5.9733275899449616
    98   3      10.296454082422795      1.9933600528191386      4.0531041764262214
    99   3      8.1252530664861151      2.2218918698153267       5.985478444224257
   100   3      10.100292365612557     0.05156939338873423       6.232620938338771
   101   4      7.7004323526951692     0.16119967969015422      8.0740159764252333
   102   1      10.129476171019025      2.0249217931593955       10.06325243338336
   103   3       10.01535826818256      2.3418400832024355      8.0428030072107362
   104   3      8.1103280645470441      2.1574093156448315      10.311590775052357
   105   3      10.120405926009788   -0.046731531096567427      10.192810438563255
   106   4      8.1077500750607037      3.7660895809825994     -0.2484962148796814
   107   2      10.290563471756066      6.0667210150323712      1.9886883294824262
   108   3      9.9768913802526189      5.9828794880048193    -0.00938524206560362
   109   3       8.050102582178825      6.1377476666144544      2.1585375221488894
   110   3      10.074037505030049      4.1412741666595911      2.3061371683358778
   111   4      8.1109810481305562      3.8716310420819009      3.8231470014628419
   112   1      10.091800832023637      6.0410728427785099      6.0634021846882131
   113   3      10.147546761200557      6.4092402437404461      3.9585329081099894
   114   3      8.0396127216584734      6.1226706325197178      5.9558459910533985
   115   3       10.37043571559504       4.035676294832828      5.8726242026772626
   116   4      8.0367150320382912      3.6734469190705936      8.1291713975540194
   117   2      10.249411617877973      6.0993849868419652      9.9943519738590396
   118   3      10.038027841692985      5.8671446997033438      8.1264740911679798
   119   3      8.0283368471395704      6.0277155145393904       10.36722604322147
   120   3      10.162214424186399        4.12520604787907        10.4309871733536
   121   4      8.3016753754005048      8.0570437661739192    -0.24408281460516693
   122   2      9.9735351075098517      10.197041281177562      1.9985986130828823
   123   3      10.393737786273331      10.218715858001318    0.029034203096149382
   124   3       8.106095370439224      10.118649726448114      1.8731317189276548
   125   3       10.12088341842977       8.099494211667027      1.7244029966639574
   126   4      8.4169620984009406      8.0298379052247668      4.2042118692753041
   127   1       10.04548162727118      10.170661273267404      6.0302800215392072
   128   3      10.138723905181319      9.8199655060073283      3.9501502425194532
   129   3      8.0101221712911492      10.047640329900268      6.1938994686806259
   130   3      10.069660103435474       8.093616520976413      6.1859396430475018
   131   4      8.4338041520936358      8.3640301427149968      7.9558897697082385
   132   1      10.090763270712012      10.088238266922382      10.160861856916528
   133   3      10.258380315140307      10.133373510276051      8.0976563248499307
   134   3      8.0510444644383394       10.26112614922968         10.098253713217
   135   3      9.9565913181343539      8.0439068983257371      10.032730555328349
   136   4    0.060912095147713015   -0.042269027291782175      11.854902217920642
   137   2       2.087676996681485      2.1218526095034833      14.173701332229292
   138   3      2.0512065702374294      1.9099993534560524       12.19907844811442
   139   3   -0.083160606662924783      1.9515238275714044      14.118622420991034
   140   3      1.9951283148136199   -0.029363687223063324      14.394015890220334
   141   4     0.32889312164313111    0.028109309392109007      16.178299824063032
   142   1       2.111336753644105      1.9721358979988608      18.190760550056119
   143   3      1.7473827605135392      2.0661517124401234      16.166307774342027
   144   3    -0.09418678220802619      2.1650843827220503      18.404384677376552
   145   3      1.7710941954974482   -0.051061936316055344      18.134282368514832
   146   4     0.28639368262415654    -0.11279255224860546      20.026740672904971
   147   2       2.136371184297472      2.0320357877053987      22.139317039423776
   148   3      1.9970067193664454      1.9611662816588575      20.261611708030671
   149   3   -0.013497438643284464       1.933232961733496      22.331685705658955
   150   3      2.0410303745861329    0.074291676167091536      22.503152846662385
   151   4   -0.066972043524144501      4.0071581278665782      11.897374333216552
   152   1      2.0387369630226764      6.0151435374093456       14.16980499267161
   153   3      2.0798312641944263      6.3615138276235372       12.15773023513602
   154   3    -0.11276472863452328      6.2509842889207654      14.143027166936227
   155   3      1.8660736852667092      3.9995736442382355      14.180727698307772
   156   4     0.31700048774122691       3.936954122277581      16.230274503481752
   157   2      2.1865654614020502      6.0819564715490237      18.183355427909049
   158   3      1.7629520052452277      6.0225193989711236      16.244341801075986
   159   3   -0.098449542614407345      6.0610274824948043      18.407718707017633
   160   3      1.9028488815463351      4.1082876351266071      18.249328680507041
   161   4     0.29851110853499518      3.9337806365632311      19.990061786989955
   162   1      2.0113335187471475      6.0231923562884173      22.232823529574251
   163   3      2.0053177831693452      6.2299178165244093      20.184640001510093
   164   3   -0.045934578938433834      6.1676633381315069      22.315643828457333
   165   3       1.863617435829177      3.9783755275370298      22.296845452859412
   166   4     0.15198757813326183      7.7722664797341308      12.088542782769943
   167   2      2.0882332733222171      10.083954150223974      14.186682458081435
   168   3      1.8038713319586515      10.076567016594469      12.244547074252978
   169   3   -0.088821398746150276      10.211805297458145      14.399503475882677
   170   3      1.9521341958791578      8.1903130012279579      14.405004717197155
   171   4     0.24144308990149729      7.8763847783147858      16.129466177113823
   172   1      1.9971208623427092      10.081760840324455      18.216557952057698
   173   3      1.9813124478879802      10.437985426404072      16.176477556997334
   174   3   -0.096037757613568697      10.327832311527713      18.155060766874975
   175   3      1.7510545934332948      8.0471361573065092      18.125441134271721
   176   4     0.28860667173942001      7.9247591430689983      20.076047919340105
   177   2      1.9918408120417683      10.098834876198827      22.198398432631617
   178   3      1.7481114406542422      10.007290826135616      20.274922564350216
   179   3      0.0187144650285446      10.122436692112096      22.515461370454261
   180   3      2.0404827652658089      8.1568244968507955      22.440951442270752
   181   4      4.4429375774888644     0.08572900664914089      12.389749570885085
   182   1      6.1197278590000268      2.0282219012069813      14.203913207008993
   183   3      5.9103375988935474      1.8691426096664361      12.156692804081489
   184   3      3.9838894558520339      2.0354910782219369      14.286020740377179
   185   3      5.9585522212495263  -0.0079376027753643597      14.344029195953146
   186   4      4.3385219244642084    -0.25578082725799101      16.025298973922645
   187   2      6.0425771928115379      1.8824525393376383      18.304694109023242
   188   3      6.2289409129179667       2.251614573532601      16.230359189905162
   189   3       4.123517663489408      2.0159160669555201      18.022210049154317
   190   3      6.2361464327259526   0.0034113182183007807      18.110851400036481
   191   4      4.2260383976073896    -0.38321225548892862      20.366397212460978
   192   1      6.1269430259295872      1.9569282832565815      22.264825588729916
   193   3       6.029424020353237      2.0411198531958017      20.228413577423893
   194   3      4.0147515489949592      2.0532691717854599      22.454375465310051
   195   3      5.9362737792826596   -0.043963127206651097      22.370569896907693
   196   4         4.3625351910846      3.7309777189322406      12.145075347724545
   197   2      6.1208065364554285      5.9659256132286549      14.190053449040885
   198   3       5.985596260754054      6.3695313888998371      12.185040892699558
   199   3      4.0934934668410561      6.2856467513855749      14.210395909095828
   200   3      6.0257841482843562      4.0790890812935396      13.972489058187154
   201   4      4.3897579124470569      3.8404281388690524      16.435524526017893
   202   1      6.1106023689427289      6.0867584796072132       18.18036313772318
   203   3      6.1421993164926585      5.9905059836359769      16.152824295411268
   204   3      4.0467749565479982      6.1699700420488286      18.093531794065946
   205   3      5.9718363228697848      4.0551304808429478      18.266426900813894
   206   4      4.6122914776848614      4.1758090161562658       20.32494040006813
   207   1      6.1497893991878012      6.0728461707345822      22.269338558679923
   208   3      6.0002170440352876      6.2934953243411629      20.221511463178935
   209   3      4.0311998066657413       6.160098274397078      22.316600938770449
   210   3      6.0024055950638582      4.0580305787807296      22.205553931065239
   211   4      4.0145051615315221      7.7551363822916679      12.253609244354541
   212   1      6.0340656075111765      10.126716760048071      14.163815438600517
   213   3      6.1803355489429492      10.064191318916112      12.136715401643137
   214   3      3.9704296064547706      10.245148426906937      14.262277988733576
   215   3      6.0478953819272556      8.1338775177422828      14.522667832640403
   216   4      4.2270658463011115      7.9193126650856565      15.977384749366507
   217   2      5.8682257711762951      10.100349963683779      18.275509767608586
   218   3      6.0040827152937792      10.479090068051386       16.27035258944203
   219   3      4.0116144365197597      10.217123668482682      18.227607428574121
   220   3      6.1794955044510909      8.2063913469159004      17.975040448469411
   221   4      4.1777496321626293      7.7126122816498421      20.494081836550617
   222   2      6.1900945244838192       10.12688048725655       22.32170431673616
   223   3      6.1427637935603725      9.9734615524687786      20.232609381316589
   224   3      4.0039879617963168       10.31129198433889      22.169766684132401
   225   3      5.8936977508940451      8.1867931292679756      22.377417470256638
   226   4       7.926248197117963     0.33416715446797973      11.860769995068704
   227   2      10.053777584653981      2.0697864768476157      14.220534692170251
   228   3      10.399244618040466      1.9503879478879389      12.212598334517766
   229   3      8.1616196159372851      1.9501928148733778      14.037924656825899
   230   3      10.289248056531299   -0.044649683169644759      14.299244724437454
   231   4      7.7497864095631446    -0.21735693013140361      15.926870546338415
   232   1      10.121914817046504      1.9653530848508722      18.207421061530756
   233   3      10.038666206411499       2.262332322054557      16.183494313349435
   234   3      8.0764999488472213      2.2560242412186819      18.305280892760766
   235   3      10.121229607753857   -0.042760321354852859      18.217353296585955
   236   4       8.094244479244793    -0.37079943246756464      20.160115223309926
   237   2      10.150186789919699      1.8281791010177093      22.276471395236015
   238   3      10.203570416952246      2.0773235886402244      20.306519047240826
   239   3      8.1750715336846209      2.1780128545938844      22.222316439285546
   240   3      10.126442462140464   -0.021107275861484684      22.461935593722707
   241   4      8.1502422809701844      3.8872220826396937      11.860758873522164
   242   1      10.101687600126789      6.0369915977131727      14.207155792641334
   243   3      10.195961644328994      6.3135925463202591      12.165287455616934
   244   3      8.0617904626015733      6.2770476453291781      14.089080571932676
   245   3       10.25832396372623      4.0081771966121584      13.999601347955544
   246   4       8.034136154842356      3.7317151192106897      16.453599498156645
   247   2      10.087688042080673      6.0013147557633149      18.141537373094764
   248   3       10.20867338471386      6.1478167957879135      16.257001247215396
   249   3      8.1986111651642695      6.2035792851467484      18.333787191981898
   250   3      10.181425434495683       4.148284933777707      18.384088248208336
   251   4      8.1486377142576849      3.6574028129518705      20.245055285950446
   252   2      10.120193117443449       6.042109293717723      22.222015499190434
   253   3      10.251088433140913      6.3729353775382815       20.27788969521885
   254   3      8.1751290282965225      6.3363604424843851      22.215566212961527
   255   3      10.081450577274586      4.1518922815110511      22.126594697517699
   256   4       8.225194492785759      7.7495543649891339      12.151692371648402
   257   2      9.9784784298673816      10.158603822590594      14.165799729151335
   258   3      10.206627715858206      10.139748154693921      12.241389773771372
   259   3      8.1230392839207752      10.169703250880627      14.323385663950601
   260   3      10.291214044461471      8.2173940281324729      14.319299072006537
   261   4      7.8250247491271416      7.9943068964697321      16.049013898243849
   262   2      10.014424495185157        10.1318097863329      18.251467592739445
   263   3      10.366485926477049      10.260475029174071      16.259806811017636
   264   3      8.1539430817798149         10.185685185398      18.147168692037464
   265   3      10.309002074244798      8.2007249140930867      18.205184025422792
   266   4      7.8327732154691727      7.7797743299790438        20.1712204566082
   267   1      10.074308621100844      10.141355679988113      22.244039763567073
   268   3      10.307193401350052      10.096506209487536       20.19311947751827
   269   3      8.0632057172772598       9.993610187956989      22.400347214234777
   270   3       10.25058927342867      8.1097484474211203      22.543248486705274
   271   4    -0.11035295516904819      11.841318240210079      -0.125102326752662
   272   2      1.9694381116924355      14.118453061108438      1.9013350577524837
   273   3      2.0911149248366256      14.245684763629784    0.016831367968712704
   274   3    0.039091111170907022      14.372040578966224      2.0973244696645188
   275   3      1.9985405060244623      12.219098337756284      2.1396557390437212
   276   4   -0.013030712375922267      11.762726951220252      4.1348502429107672
   277   2      2.0751594738211656       14.05544716977959      6.0189989161038451
   278   3      2.0024258713087861      14.376606054102513      4.1067489382399254
   279   3    0.015081452670751059      14.241093930185686      6.1923831643758955
   280   3      2.0251405015028889      12.171089865863381      6.0826841341737889
   281   4    0.033496792112628092      11.866678456724678      7.8192324710587231
   282   1       1.978861291013422      14.109335295996001      10.097719148697964
   283   3      1.9927638403378487      14.271617347859742      8.0684662291328291
   284   3   -0.074824784236282998      14.219481157266074      10.336955689161957
   285   3      2.0175972211332809       12.10894089524716      10.450518062133328
   286   4    -0.15435740216721627       16.10154121859587    -0.20594648881856328
   287   1      2.0314795656276674      18.226058266081218      2.0012969151921092
   288   3      2.2427292404843193      18.281025349101757   -0.032431959525321657
   289   3    0.018772961865797227      18.220811320660264      2.2537161127609351
   290   3      2.1872265115184795      16.181322334525607      2.0529989868593463
   291   4    0.029251271237749638       16.28083469974705      3.6721063757292254
   292   2      1.9772030557634295      18.155251155715462      5.9990201809027779
   293   3      2.1477585356619264       18.18703328215808      4.1351078295714405
   294   3    0.065792337865402853      18.389824770251696      6.1329391211838864
   295   3      1.9864258435013871      16.277305630110831      6.2490326205435958
   296   4     0.15445207818080728      15.888663239159305      7.9882001788292785
   297   2      2.0249262098250687      18.128354654769293      10.184327831455676
   298   3      2.0247459579832108       18.49245077266389      8.1390185809105109
   299   3    0.010921872071375464       18.43889574375925      10.219319975539978
   300   3      1.9059323056142699       16.23747328705732      10.090870543456143
   301   4    -0.21549357314199125      20.495231844281381     -0.1545149486053764
   302   2      2.1149817821669457      22.163364807173547      1.9028841993357579
   303   3      2.0124882287595591      22.231279042149524    0.036652255221910214
   304   3     0.13633467777344341      22.261365051811254      2.2393017082308688
   305   3       2.128948854374404      20.275763378650126      2.2322280835737787
   306   4   -0.027223367135745715      20.167034207803479      3.6803712086538658
   307   2      2.0263376497138923      22.237743764828561      6.0395822414119253
   308   3      2.1959966041739332      22.457427376314978      4.1159686157298978
   309   3    0.048644765755304464      22.334007029903617      5.9826453788232676
   310   3      2.1412560883183489      20.287612514617845      6.0884778211678192
   311   4     0.27078104665002273      20.225350144835367      8.0947946589034352
   312   1      2.0402618447950598       22.31331256679205      10.074413325106592
   313   3      1.7681840511080087      22.193494659627465      8.0654253743740334
   314   3   -0.061519317036926584       22.25568115410395      10.409826409690133
   315   3       2.005780627154468      20.276912700054769      10.283987842823278
   316   4      4.0373248073005588      11.889915275495571    0.039391644532376507
   317   1      5.9842723805671323       14.20147328828851      1.9779773826365465
   318   3      6.0350916204320715      13.941365073659906   -0.069101174801650955
   319   3       3.983518356908117      14.163635711044339      2.2205916174415825
   320   3      6.1136449851228853      12.128965249189534         2.1656828674891
   321   4      4.2449484806973263      12.170392054178871      3.6726570428586407
   322   1      6.0202678835085388      14.138856261812062      6.0625157000894179
   323   3      6.2542297122593675      14.203030615961849       4.065295850143765
   324   3      3.9904919544998703       14.25723040225289      6.1393981503245518
   325   3      6.0273195155417296      12.069213210719075      6.0994396183376205
   326   4      4.0886458524911902      11.931949499527937      7.8212388063074672
   327   1      6.0511137487338544      14.127648796864355      10.162887245224526
   328   3      6.1127498971169514      14.132383590055516      8.1165286080772532
   329   3      4.0049316539163895      14.252025817957289       10.23646485409877
   330   3      6.0268796861447367      12.118559403770501      10.375760045963343
   331   4      3.7059945322360011      16.234859584183194   -0.026746863151558577
   332   2      6.0489480705864116       18.21252839138339      1.8894214466993662
   333   3      5.9802641422229676      18.427171962509401    0.011750689506573632
   334   3      4.1217266426821464      18.223743054283016      2.2108221576891456
   335   3      6.1725806979668887      16.250061730722742      2.0417856549608673
   336   4      3.9265007484110894      16.051566674691106      3.7317590608782569
   337   2      6.0082688379287568       18.08975042967224      6.0861777248967792
   338   3        6.20842395454192      18.181647743786758      4.1216889556746903
   339   3      4.0816957385713648      18.301475100889927      6.1818795370540229
   340   3      6.2004034552215428      16.228466106562703      6.1895943397995854
   341   4      4.0908574688494497      15.614448234157196      8.2292937592224842
   342   1       6.021321009250066      18.228676687614172      10.079112585290662
   343   3      6.1415204935941166      18.438794298308075      8.0394515409268923
   344   3      3.9942908864587809      18.378743617065588      10.064301102498737
   345   3       6.168721868831077      16.197741640954266      10.097452240080385
   346   4      4.1408315217758291      20.079188827788908    -0.27115093516383437
   347   1      6.0800150363165208      22.219191430332625      2.0128990855845177
   348   3      6.1839154933475733      22.205897814810811   -0.013472115497956324
   349   3      4.0395915171123109      22.379235577041111      2.1415929274490595
   350   3      6.0486309567724321      20.205459326195705      2.3104155795102099
   351   4      4.0787498327494962      20.099515116871189      3.7646687772832204
   352   2      6.0813900038549029      22.184334086523005      6.1213967777314018
   353   3      6.0240462511907538      22.560895826934452      4.1623420585827855
   354   3       4.099134223507499      22.383996761762344       6.259466521329168
   355   3      6.0846398244117319      20.294448470922323      5.9423869329392298
   356   4      3.9995710296276044      19.979973961853904      8.1595058275219188
   357   2       5.911753573932387      22.285855016730434      10.136620214900628
   358   3      6.3620692875991978      22.200200960758696      8.1094185604792841
   359   3      4.0608287770398617      22.240621922664609      9.9433346616725462