(written by ASE)

1080 atoms
4 atom types

0.0      24.299999999999997  xlo xhi
0.0      24.299999999999997  ylo yhi
0.0      24.299999999999997  zlo zhi

Atoms # atomic

     1   4   0.0021102213704214143    -0.28232537604977553    -0.15982519810562695
     2   2      1.9668785473338954      2.0314852433048549      1.9442513193155422
     3   3      2.0808094531441634      2.0191402084816628    0.033169277038253453
     4   3     0.07732132722563774      2.1662778583212745      2.0777002834596976
     5   3      2.0786857763191193     0.12900044269674193      2.1901755640024736
     6   4    -0.13181995225199156    -0.18069758786109835      3.9713352074441959
     7   2      1.9379864471760999      1.9476238296319863      6.0452571757405638
     8   3      2.1186959355938826      2.2811527145977335      4.0615565411057695
     9   3    0.035026039492582865      2.0842158647142788      6.0460722224407393
    10   3      2.1307534092298166    0.061927424014788589      5.9480942329903632
    11   4    -0.24129894872448682     0.10354896972279617      8.4993976807213354
    12   1      2.0138305194952841      1.9828039035852165      10.118661246375385
    13   3      2.2383993330942604      1.9982783520729979      8.0198714093981813
    14   3   0.0061725992314041718      2.0011462610965509      10.020586135627372
    15   3      2.2430883702268916   -0.045926839350040986      10.055527441274009
    16   4    -0.28103948843704646      4.0776274607763883   -0.044742051414894436
    17   2      1.9588516222155923      6.0479024739246441      1.9178267834443881
    18   3      2.0956396591228748      6.2838108588527248    0.031025601469759849
    19   3    0.061014916442153525      6.0625777581462623       2.094673377172827
    20   3      2.1262232746528658      4.1077112872485948       1.980197204871496
    21   4    -0.29917653083694945       4.032261787015309      3.8479525952923255
    22   2       1.907514790330008      6.0522648028824584      5.9547421875299529
    23   3      2.1026710415198457      5.9723777191994269      4.0724406311691572
    24   3    0.038171826400885886      6.1837115176995319      6.1735408639961049
    25   3      2.0915478922303894      4.1272182221866496      6.2447343794812484
    26   4    -0.26173393623863656      3.7822880413904638      8.3666427768550609
    27   2      2.0728408947992487      5.9696372260830097      9.9728139689024786
    28   3      2.1500849499121064      6.2813060053126186      8.0923338395876883
    29   3    0.099808081938711324      6.3130309217508502      10.069826684332865
    30   3      1.9862702050677596      4.0938040198247094      10.044334181624489
    31   4    -0.36383311936621504      8.0881056745997206    0.055916338990849371
    32   1      2.0200558789393881      10.024081719466354      1.9897813091459926
    33   3       2.047721974259276      10.211691064947608   -0.068227530445384446
    34   3  -0.0022850378105403082      10.215745580987818      2.0780449090615751
    35   3       2.026781535542018      8.0158342753303469      2.2839863777957703
    36   4    -0.26116514161426985      8.1020949945764791      3.5904055263303709
    37   1      1.9753767788327863      10.066644321935257      6.0675965451348777
    38   3      2.1097047293658298      10.243511165822138      4.0641577106344329
    39   3   -0.067696333018414642      10.285623081615308      6.0965481288245131
    40   3      2.2627360777285213      8.0300263978717492      6.0174573365784303
    41   4    -0.25238700725584057       7.827392190950234      8.1288020243146786
    42   2      2.0013004720811187      10.037177242431536      10.098939921615044
    43   3      2.0026679129739144      10.132832721025741      8.1568072603416564
    44   3    0.040158726443088877      10.087704984662334      10.174121215853772
    45   3      2.1688899984585377      8.1531335233197257      10.266361024303771
    46   4      3.9987165127779556    -0.33325373734268166   -0.062637351598085395
    47   2      5.9795573154317223      1.9463970264635764      2.0204256695814884
    48   3      6.1557685707599505      2.0402558695636386    0.053154461731694309
    49   3      4.0724630102315711      2.1451132949276484      2.1047716004377275
    50   3       6.092516852502408    0.077884666483281101      2.0756826603618279
    51   4      3.9963201984516341    -0.28125079050066848      3.9155609213477263
    52   1      6.0289008425307697      1.9824199957835731      6.0557363254466692
    53   3       6.133245996266532      2.2333057571021415      3.9759266253800294
    54   3      4.0270842750887761      2.2770990152910096      6.0129667440148715
    55   3      6.2734435971919451    -0.05056979821117015      6.0873111568691334
    56   4      3.7701530681355133   -0.038547766042107426      8.2208736297419094
    57   2      6.0440726056060514      2.0369399438496569      10.152278707811089
    58   3       6.129608479130856      2.1204980250117562      8.1212559401532989
    59   3      4.1189066752358228      2.1866474231220572        10.2011783646838
    60   3      6.0491568250193488    0.038050031493378725       9.933900897002875
    61   4      4.2181757348733075      4.0214906583361891    -0.41267780971935086
    62   2      5.9824196477893903      6.0635841989085604      2.0923539891712126
    63   3       6.076991779107356      6.3008176710803099    0.070458830631582162
    64   3      4.0853069670635289      6.1876188692073937      2.0805608945696283
    65   3      6.1769568878509435       4.123531282627523      1.8711384535877067
    66   4      4.0106043513308895        3.78202721289952      4.1621512918113517
    67   2      5.9903699489170688      6.0807895680151356      6.1701774004805099
    68   3      6.2707047079935814      6.0622517743479722      4.0410497639641072
    69   3      4.0958847259844102      6.0306391282759337      6.0923575224937316
    70   3      6.2436501204786987      4.1188554308419931      6.0805770409845108
    71   4      3.9474438154338536      3.7138576784920465      7.9141076271711936
    72   1      6.0401288060223068      5.9790629251562377      10.061227369408378
    73   3      6.1880245873908901       6.115276417696248      8.0557597977818052
    74   3      3.9973501922803374       6.028214788075732      10.324063966729756
    75   3      6.3382444685969528      3.9844610920756991      10.168383938254905
    76   4      4.0671303041169269      7.8415051614266122    -0.17686103293725278
    77   1      6.0591978184382578      10.082010737074929      2.0419629840648255
    78   3      6.2453019987314153      10.148295688899241   -0.045313587030385134
    79   3      4.0535550765246064      10.242289603078762      2.0653287813146441
    80   3       6.294570847167253      8.0559183332671456       2.097347326251052
    81   4      3.6915754209426823       8.307761236029064      3.9209886099492492
    82   1      6.0697008195469708      10.087062565015767      6.1017022380124883
    83   3      6.1859068465153859      10.202742736473336      4.0688229726781744
    84   3      4.0382944877390266      10.208940914468705      6.2065499636185848
    85   3      6.1423747636564521      8.0525395545528404      6.0255637039175163
    86   4      3.9183848925327918      8.2492208744276638      7.6919501354260102
    87   1      5.9974960929841341      10.061142307770721      10.167327905737098
    88   3      6.1096566601416997      10.187129080381464      8.1267530136376251
    89   3       3.976565264434202       10.36422807537209      10.128060940128455
    90   3      6.0867257908808137      8.0662845312164748      10.226865874720383
    91   4      7.7333824141912579   -0.065636835649896683    -0.12689973707162722
    92   2      10.019809664571454      2.0338895817642557      2.0851705411853287
    93   3      10.289267219845479      2.0005494876320773   -0.063583958817783781
    94   3      8.1297979123029744      2.1180208563004115      1.9566540501630889
    95   3      10.237559231001192     0.07502086837915542      1.9859689026146023
    96   4       8.008986269479859     0.16382670900691501      4.4444068084723583
    97   1      10.169642436711865      2.0373890489261539      6.0597270445437772
    98   3      10.192845475583358      2.1631704997308265      3.9343549444047463
    99   3      8.1268913821180906      2.1233084314297486      5.9698734773081013
   100   3      10.058322841726604    -0.02003939165060923      5.7562862342987522
   101   4      7.7668254567450763   0.0075276736275671479      8.0473764172905593
   102   2      10.113836764058282      1.9740830793666633      9.9306304398887484
   103   3      10.188973737712772      2.0302983801389924      8.0840925088207936
   104   3      8.1662274469687688      1.8755275294376128      10.029589241433751
   105   3      10.374590468445778    0.055900399112169145      10.181241663244181
   106   4      7.7434514001562196      3.9859173897584861   -0.097948386057130368
   107   2       10.05831330186915      6.0958155154521858      2.1373411953986041
   108   3      10.292112109152448      6.2156588266233594    -0.09245400723093021
   109   3      8.1682136283532341      6.0985502902357016      1.8502789892694376
   110   3      10.242117781173661      4.0785393378184258      1.8081779657726826
   111   4       7.931799573355077      3.8190156049021318      4.3399888417715271
   112   2      10.063729287508494      6.0130747910803466      6.2145418537471633
   113   3      10.166676455795608      6.0466267592574443      4.0046780778120183
   114   3      8.1808561831965818       6.104133001288516      6.0709623290245709
   115   3      10.248128429620255      4.1325156077286733      6.0159055539426509
   116   4      7.8742237850018979      3.7367500642076088      7.9189647665238958
   117   2      10.061719333530444      6.0062016267312375      10.229855420313655
   118   3        10.3275661379512      6.1790404695100785      8.0905011979887824
   119   3      8.1769340511154223      6.2729351398393796       10.09747455249631
   120   3       10.00544377442899      4.0553396428249515      10.071275646155019
   121   4      7.7869329136335192      8.0554058504787918     0.17006827161292778
   122   2       10.08008979548535      10.195030682256204      2.1339866789450515
   123   3      10.150927757782879      9.9885526991744218   -0.037317122565123734
   124   3      8.1853770698342476      10.134082066750805      1.9833660888718734
   125   3      10.224214408599552      8.0846094023649524      1.9456607908438264
   126   4      7.6679192179429876      8.2457715718189455      4.1536107798415518
   127   2       10.11652453045885      10.001011116955969      6.2525022997102253
   128   3      10.202376764830491      10.165878286701819      4.0143447957359113
   129   3      8.1967256066391361      10.189121559577458      5.9817661730628178
   130   3      10.239851835919353      8.0923949463149292      5.9382742304738629
   131   4      7.6413381558434095      8.1952775130421074      8.4248336875472845
   132   1      10.119310416477203       10.02591144630729      10.168068038640916
   133   3      10.181582472933272      10.065286093953901      8.1105740011445349
   134   3      8.1049494672544729      10.121840344496917      10.157576121008058
   135   3       10.48128850403392      8.0033843281172174      10.172343686952912
   136   4    -0.54999107999453245     0.15787362726954637      12.031019467446567
   137   2        1.91834554829447      1.9151434317811762       14.12262697961742
   138   3      2.0251869249552477      2.2576087198142245       12.18773670462387
   139   3    0.054463386589080842      2.0590991667421763       14.29835425538362
   140   3      2.1628927528121271    0.022321919187182234      14.010468839799058
   141   4     0.17800737529861488    -0.19714130077714387      16.590330657081477
   142   1       2.000375998911077      2.0329604302291684       18.23344059849796
   143   3      2.2529836930846621      2.0367613183273048      16.086157344334254
   144   3   -0.015944937118736086      2.1766418187023731      18.164854440801445
   145   3      2.0931061859480344    0.015482149174012881      18.200384882635017
   146   4     0.20377889101274868    -0.42709088517636185      20.210137006608157
   147   2      2.0277813337549055      1.9462286412513934       22.22377057669306
   148   3      2.0228554326920034       2.215860189252381      20.304575867559457
   149   3    0.069866756956583287      2.1440385035448717      22.314614455215438
   150   3      2.0999781002786682    0.064854526999141834      22.235832112891337
   151   4    -0.28521245838884068      3.7352917875056311      11.860231626214517
   152   2      2.0372435324304963      5.9655161839489201       14.04226814603398
   153   3      1.9412743178570639      6.0898300749425074      12.152463497453965
   154   3    0.058047871357323914      6.2363338684218963      14.319248460500068
   155   3      2.0660957494721384      4.0906743556629621      14.264313110778421
   156   4    -0.13737725378196641      3.7373902227696223      16.137398528914716
   157   2      1.9894354421088811      6.0034732347980126      18.127100064576673
   158   3      2.0777302967227964      6.2963183531262947      16.215978810890959
   159   3    0.088614536666597105      6.1739198435777176      18.252383673970538
   160   3      2.0916506712244396      4.1288923577700816      18.130774830493213
   161   4   -0.029914450996621683      3.7598875016929179      20.099317723208276
   162   2       2.034522347850491      5.9932414693743148      22.132270814351202
   163   3      2.1332304548388095       6.108495081830088      20.240183565087573
   164   3     0.12727999398866979      6.2257651537278358        22.2446636166183
   165   3      2.0221309497109465      4.1228273549023946      22.455551362986476
   166   4    -0.18581053907995981      7.9010872170144566      11.880825716082308
   167   2      2.0105102907994938      10.040017667707355      14.031286387142753
   168   3      2.0463289680813621       10.29719796590431      12.165211944611578
   169   3    0.089958858486177282      10.175245940414177      14.345986622544428
   170   3      2.0149930667261251      8.1636431755315897      14.190203272874648
   171   4   -0.077522842698552627      7.9491456837473295      15.989599548127421
   172   2      2.0494019103379242       10.08801357774378      18.098345329471865
   173   3      2.0684060605196999      10.172891292638045      16.221603615075779
   174   3    0.060145696100281608      10.268325202736744      18.337726615097885
   175   3      2.0887499502186846      8.1728645995932379      18.393665222665398
   176   4    -0.20107811987745763      8.0485096808467027      20.280420985955182
   177   2      1.9676924393436013      10.024749435737814      22.267610971776492
   178   3      2.1299929803622835      10.279346593450319      20.313879474066038
   179   3    0.065844398875984395      10.097518724530318      22.198795981948454
   180   3      2.2303660233272358      8.1402161261467967      22.273813817057786
   181   4       3.994021961513504    -0.12877108062254289       12.30557788775811
   182   2      6.0268220437718663      2.0348730665926635      14.253459904475259
   183   3      6.2657766388839518      2.0076890128061566      12.110612726516315
   184   3      4.1000492488226223      2.0634010875218265      13.916609640348206
   185   3      6.1541893632868971    0.023960649543553144      13.997404181101439
   186   4      3.8542312168965225    0.091102126950989362       16.63157808280765
   187   1      6.0849547886510402      1.9876459899545322      18.189735088911636
   188   3      5.9186859356619284      1.9882502125613302      16.135804102175193
   189   3      4.0489371300819963      2.1112567082371116      18.214120688921952
   190   3      6.1753421641924664   -0.050760406062610994      18.303386858679655
   191   4      3.7022871080561965    -0.25273242885245362      20.103716284461502
   192   1      5.9950677567592709      1.9883335023431223      22.300728785473783
   193   3      6.1533203927227573      2.1527103931661387       20.26841966966542
   194   3      3.9868858604084534      2.2357660189718467      22.311855192575731
   195   3      6.2410956462697351   -0.023562458774307557      22.245238283033032
   196   4      3.8570278060685341      3.8211355590070011      12.016643816691152
   197   1      6.0195028200374958      6.0161811017492681      14.168856948079538
   198   3      6.2148323306995605      6.1199812540873442      12.148201015298921
   199   3      3.9577451220853548      6.2472599765066299      14.197553990893585
   200   3      6.1812356618079436        3.97904696497107      14.096469988228332
   201   4      4.0089773398510431      3.6951177727551254      16.452577872564635
   202   2      6.1330505827264341      6.0047723251433922      18.191878812337169
   203   3       5.945812191602788      6.2433239032328478      16.237613154537122
   204   3       4.026533079017435      6.2659323022595306      18.250548696714631
   205   3      5.9882404247974392      4.0957303488702976      18.201489960548656
   206   4      4.1789938060823628       3.549603324759115      20.088445799743695
   207   1      6.0383178544352409      6.1016306969441194      22.266417505811475
   208   3      6.1858935922926879      6.0594296643172676      20.223368767888712
   209   3      4.0154205075036504      6.1139262321575325      22.473557466722212
   210   3      6.1696178814509652      4.0817347259251378      22.432505703190635
   211   4      4.3345699835004048      7.7500430391874158      11.868197326295521
   212   2      5.9575233955606821      10.012153685893976      14.231656619972801
   213   3      6.0606045772528168      10.238206394921528      12.236311079153417
   214   3      4.0322728922940865      10.197338189836136       14.22714564518215
   215   3      6.0782420666585972      8.1394270890608471      14.188265593321962
   216   4      4.1448981816784514      7.7678490719672189      16.066572056203704
   217   1      6.0798342680888435      10.085749902667597      18.228369517211771
   218   3       6.048439792690214      10.284217511186611      16.151749577775128
   219   3      4.0271224460193675       10.25480809220978      18.304028320379441
   220   3       6.024982208206791      8.0972669174826546      18.473260536944643
   221   4      4.1297281602850555      8.0198753091550152      19.939993862547656
   222   2      6.0013191369554182      10.112405013497412      22.265321884485349
   223   3       6.184945369337683      10.269530893647712      20.305060533590144
   224   3       4.098228772406534      10.292510128543871      22.342860506216237
   225   3      6.0682487281380837      8.1833597771577207      22.190220216735646
   226   4      8.0520040168550846    -0.11711614494865641      12.339598177643818
   227   2      10.179843662851008      2.0395836965322371      13.999249439948704
   228   3      10.122356649464983      2.1919347635487978      12.139902896131613
   229   3      8.1009447641657673      2.0315137828973544        14.3363829146416
   230   3      9.9104498001179309    0.068775090515500417      14.144233878347327
   231   4      8.2993812348320599     0.04723761504575251       16.04425485146011
   232   2      9.9572428378293143      2.0513985150323668      18.255983983708017
   233   3      10.196238167873966      1.7565315761722053      16.307194103988682
   234   3      8.1050155876976717      2.0781067065062637      18.221149353913145
   235   3      10.109258607054427    0.047118175444945849      18.495631920852336
   236   4      7.6297165808794674     0.20895808805483768      20.302110274560889
   237   2      10.042128320562945      1.9730382681943983      22.272841577243778
   238   3      10.152810026446252      2.1963666244889644      20.285910930964665
   239   3      8.1546479317872791      2.0787876354985104      22.303726624179735
   240   3      10.204568356150649    0.053814731895525582      22.240322800874434
   241   4      7.7207861279207464      4.2650709291375213      12.161098251228838
   242   1      10.101123568248074      6.0365378505297071      14.146169486447871
   243   3      10.178641060781143      6.0569167988156254       12.13668860569822
   244   3       8.087248458343085      6.0203544671189082      14.404996502836688
   245   3      10.106503241262589      3.9495509095317853      14.511699162751755
   246   4      8.1154252889749916      4.1796133948293237      15.849541000639361
   247   1      10.034365395629305      6.0602506810330006      18.242746491439625
   248   3      10.261454218336276      6.1497492424093236      16.214163354246182
   249   3      8.0433613928949637      6.1757565190893411       18.06161211902106
   250   3      10.306171909464368      3.9862731773044202      18.121987999040154
   251   4      7.6213445686410255      3.9399645886061334      20.452884558066234
   252   2      9.9635971475496188      5.9996068073390401      22.277418617822956
   253   3      10.224253938795636      6.0286997404958864      20.293376779837313
   254   3      8.1133222336105781      6.1800940416463144      22.304738288038489
   255   3      10.166790952343122      4.0816099094324274      22.368303689984518
   256   4      7.7349845803233022      7.8937315165729061      11.980514679233117
   257   2      9.9773081119788145      10.118082023150277      14.225017838974084
   258   3      10.311253314927807      10.132994368353181      12.229698873400306
   259   3      8.0821438604031286       10.19716278081818      14.177976818256841
   260   3      10.222915706932296      8.1651013928246421      14.168408917711098
   261   4      8.1764957625218173      7.6608770624236984       16.01168192519156
   262   2      10.005218208548127       10.09969299474872      18.316518886708884
   263   3      10.251435374537117       10.14042747888856      16.185762211670053
   264   3      8.1331575687373512       10.20436468440055      18.123191543452027
   265   3      10.208642894753828      8.1829638121770891      18.293181394897605
   266   4      7.7241377242582416      8.0037597065444626      20.204885110898172
   267   2      10.124343722632554      9.9883426639379849      22.374258057854085
   268   3      10.147545378290618       10.27194450477754      20.196743226150577
   269   3      8.1636143328564792      10.114612958480212      22.224930730735643
   270   3      10.246572976703298      8.0902163037316939      22.092668193577275
   271   4    0.027467476783383963      11.758986817627655     0.30315890316667365
   272   2      2.0226975408015768      14.162519433691655      2.1216882814854423
   273   3      2.0100938491029483      14.339203388396486   -0.025819955057489994
   274   3    0.022097629286111288      14.228447049563291      1.8957953722053085
   275   3      1.9867581819999052      12.214590331258432        1.85453312263794
   276   4     0.24340538502417045      11.677991935484362      3.9871237143390017
   277   2      2.0862962426594649      14.138546758665015      6.2152310872261474
   278   3      2.0158949559865729      14.093346310897722      4.0301525792162467
   279   3   0.0019991964817962921      14.324840378805515      6.0230921782818765
   280   3      1.9134213444433033      12.230580078680386      6.1903162059810475
   281   4     0.11692351462166793      11.855798195381732      7.9030637028036939
   282   2      1.9882403533898914      14.120014135736671      10.283898751197572
   283   3       2.028477838428953      14.310305220443336      8.0942145898910489
   284   3    0.057976767670701632      14.364681487470765      10.073118534309597
   285   3      1.9478552220938736      12.200432116283181      10.079458505939034
   286   4    -0.11195508489833854      15.868943476706599  -0.0037660491821006376
   287   1      1.9574772846426167      18.148619533056948      1.9776169776772881
   288   3      1.8411599689546854      18.244875328047439   -0.065170903589219648
   289   3   -0.082278998787694207      18.442683710842601      1.9961139451342416
   290   3      2.1356268929649218      16.131041192535882      2.1234487962077071
   291   4    0.063994087332011756      16.127762092174734      4.3560051254608405
   292   1      1.9846441288188406      18.189105046072147      6.1053838442998911
   293   3      2.1204498710371271      18.326636548496221      4.0258629053984993
   294   3   -0.089800638597482552      18.233927661744996      5.8358815911527273
   295   3      1.9988821215487402      16.145770923117396      5.8157859593123185
   296   4     0.25744043315878357      16.267289908726941      8.4854370326205668
   297   1      1.9969231224586594      18.199806375262192      10.247864056288646
   298   3      1.9360650626204245      18.317640216901758      8.1027828313763006
   299   3   -0.059834583000828639      18.201063337765472      10.025498832799357
   300   3      2.1236737531427488      16.181687395463403      10.019374399405519
   301   4    0.054579648367089152      19.896761935664244    0.053673163453580849
   302   2      2.0325176557296323       22.17874119506028      1.9738906474417475
   303   3      1.9963518506782922       22.52029940244589    0.048017981060017451
   304   3     0.05149982219777826      22.446794634063025      2.0373884010364618
   305   3      2.0262976978364033      20.308252959619391       1.995450342705539
   306   4     0.19565089515220943      19.835662852386111      4.0687338627499452
   307   2      1.9262442985742037      22.178852592450532      6.1058884522466803
   308   3      2.1472176448853308      22.392775787230292      4.0396045841209265
   309   3    0.025827606634117581      22.420044078962537      5.8889617403099308
   310   3      1.9758339177447548      20.321281203274072      6.0373794606233249
   311   4     0.16137951290429725      19.933249833757074      8.3755070310649788
   312   2      1.9105957264792586      22.307500241719008      10.239867439420372
   313   3      2.0152507646054523      22.427959695211019      8.0259782293330861
   314   3    0.040660718305320691      22.407837308160904      10.140663664324016
   315   3      1.9854291737974368      20.359309568807191      9.9810083672228611
   316   4      3.9269326735691386      11.798581807109603     0.36295447994642605
   317   2      6.0382394419104273      14.132403606230834      2.1846794357686892
   318   3        6.17381147557799      14.155361207326377   -0.012001964138381867
   319   3      4.0569670130166662      14.103493517605473      1.9072129504257389
   320   3      6.2280178787300642      12.200493657134356      1.9289131095154979
   321   4      4.0153286979410581        11.6180361562385      4.0878271019654839
   322   2      6.0413255221086857      14.122888390280389      6.1839604777580046
   323   3      6.0635536780183319      14.204422418410921      4.0698336101005328
   324   3      4.0627757840272736      14.201619186953378      6.0496834499302903
   325   3      6.1765177715982063      12.227957698833663      6.0642816165947666
   326   4      4.1716261423912613      11.709334741123017      8.0120449311543052
   327   1      6.0792211982709183      14.173032310223764       10.13122851881827
   328   3      6.1707841628037663      14.235077167132895       8.063504666961137
   329   3      4.0012328250529556      14.197957678171809      10.242611963236758
   330   3      6.2020250242925048      12.173205078051106      10.252018130423505
   331   4      4.2661037149596357      16.443433042290476     0.32356540310300297
   332   1      6.0737609051599897      18.140656485887479      2.0993854196789492
   333   3      6.0407025284177873      18.250272938740643   0.0050444612774141889
   334   3       4.018340038050118      18.255158272302843      1.9429296365236062
   335   3      6.0140399814035916      16.123795808287287      1.8885955053671635
   336   4      3.6485694308879459      16.423849055553433      4.0730154516433483
   337   2      5.9594864868056767      18.126819812180432      6.0911935371456076
   338   3       6.043971441821145      18.395963535945345      4.1218265094475681
   339   3      4.0717337189989999      18.258464109684841        6.08276316229645
   340   3      6.1424114657602775      16.235805490015888      6.0643348303014104
   341   4      4.0214351979561176      16.347268102261108      8.5843229757261152
   342   1      6.0993992502202712      18.262052789925214      10.184936118706513
   343   3      6.2046316194900291      18.339167340989103      8.0383300997643037
   344   3       4.053215543598772      18.390814050342716      10.053267721161394
   345   3      5.9570809921178389      16.238225517725628      10.034348209619184
   346   4      4.3880340844552927      19.913390730884494     0.28425405594078035
   347   1       6.062303436341999      22.283245937705527      2.0522504249340563
   348   3      6.0803063815663627      22.480915141918416   -0.028220186796576594
   349   3      3.9852907901757115      22.499364184850023       1.969421727829475
   350   3      6.0897192322229063      20.267150338862734      1.9502711163575199
   351   4      3.9522485318119256       19.84753788141586      3.8219826805129231
   352   2      5.9397116803940762      22.216995445892096      5.9973961737871653
   353   3      5.9184323716202556      22.309997329966542      4.0987120811743676
   354   3      4.0349799942679478      22.403289566373832      6.1543018826279052
   355   3      6.1526645385584748      20.298215447049351      6.1345429464316537
   356   4      3.7560177624302358      19.865719006226989      8.2921771359150043
   357   2      6.0075819737817531      22.222546571527729      10.122681309394846
   358   3      6.3422360255251453      22.327732411181994      8.0628304968006361
   359   3      4.1060098637574614      22.246192569429397      9.9047012026758683