(written by ASE)

1080 atoms
4 atom types

0.0      24.299999999999997  xlo xhi
0.0      24.299999999999997  ylo yhi
0.0      24.299999999999997  zlo zhi

Atoms # atomic

     1   4    0.072177271982589844  -0.0023371039122578987    -0.36596268695983147
     2   2      2.0140367156820966      1.8643481750773625      1.9965251173617393
     3   3      1.9191906839192248      2.1976151650564062    0.059406047723833386
     4   3      0.0646088059389201      1.9886892381756047      2.2349085725391773
     5   3      2.0940108414180201   -0.022938274190227415      2.0044353754661794
     6   4    -0.16776919788210953    -0.23379456609385832      3.7469709967528688
     7   1      2.0303732047732113      1.9188196325870377      6.0245675562782655
     8   3      2.1479563379084348      2.1015042695525037      3.9892130068300391
     9   3    -0.02508546235204568      2.1704214933501977      6.0252568062463858
    10   3      2.0164946480272765   -0.082701486367151397      6.3347933831510037
    11   4     0.46024538002762777     0.17117440974173009      8.2041834780784839
    12   1      2.1233489738302751      1.9779810681351142      10.146550980975611
    13   3       1.887912232979029      2.1415961903612484      8.1293914277782022
    14   3   -0.065872498192174403      2.0823153115563513      10.414098205782555
    15   3       1.768013253813886   -0.015116846938903914      10.075460024884761
    16   4     0.19875024992954271      4.0817228288720688    -0.29836784637584451
    17   2      2.0685806928877493      5.9464706591409895      2.0345547390126484
    18   3      1.8314400487993825      6.0671080406420943    0.073420754020068701
    19   3   -0.021684774332599192      6.2835322109805469      2.1428045741354631
    20   3      1.9283429983375822      4.0727129394898407      2.1237344216558967
    21   4     0.32544157272653862      3.7697042093525335       4.215051206189516
    22   1      2.0887123811115118      6.0675876033990539      6.0213648742397279
    23   3      1.9964222482687366      6.3341831126066044      3.9754433052775413
    24   3   -0.017581329063207106      6.2033549357215954      6.0124898396437967
    25   3      2.0172613909559436      4.0574205903927911      6.0443707823777526
    26   4     0.36026042795744889      3.8251673143380271      7.7858340341822521
    27   2      2.0194507855797328      6.0032875476448444       10.09052454162874
    28   3       1.947046322124854      6.1165306500050374      8.1796922327123038
    29   3    0.058563746070786044      6.0833403238579074      10.356678724490914
    30   3       2.036437264415965      4.1069996885977664      10.337535969208352
    31   4     0.15338572002226469      7.8508906024241432    -0.24100930370174742
    32   2      2.0377827110777496      10.106885677783088      1.9394914272933408
    33   3      2.0176751745930077      10.379795392152715   0.0041891889836294122
    34   3   -0.019958999255001497      10.162066081074446      2.0053827420418608
    35   3      2.0660882304105339      8.2072196605857695      1.9023116537025975
    36   4    0.030183550358152074      7.7502807819906225      4.0782890120170867
    37   2       1.990833238704709       10.05976233820066      5.9266756412218156
    38   3       2.020002494894483      10.079566832828959      4.0446926145455189
    39   3    0.070882894623318024      10.291400883798641      6.1381574108815524
    40   3      1.9699225986041105      8.1818233601158958       6.259141163827322
    41   4   -0.042099594895974556      7.8478399995457533      7.8299132333966774
    42   2      2.0410897293178838      10.153265626008531       10.00757234758712
    43   3      1.9589688086048418      10.289336676458914      8.1388378287380512
    44   3   -0.052773171607498157      10.319516693583161      10.256388586348672
    45   3      1.8769476353941468      8.1964155267828307      10.141683300481009
    46   4      4.2325360813139099    -0.26059864645782532    -0.28526179157018966
    47   2      6.0863655781038464      1.9499439298572772      2.0335190707385191
    48   3      6.0874465491053504      2.2486534078527436    0.020081802059746294
    49   3      4.0070213699404285      2.2260781440739841      1.8928359098373169
    50   3      5.9067734715232314    0.030047805163034822      1.9397885462562359
    51   4      4.3610649266014985    -0.35179991924354209      3.9484442558532447
    52   1      6.1083448289302824      1.9987417503502907      6.0405740028891257
    53   3      5.9203973946996742      1.9745112089443169      3.9967439551492765
    54   3      4.0631730959594563      2.0555861807364866       6.211599487796895
    55   3      6.0991972278747006    -0.01609304146288202       6.288235206555572
    56   4      4.1729127437562017    0.061249692453258099      7.6427181323876123
    57   2      6.0938602490710831      1.9010162409506206      10.069934577656367
    58   3      6.1985285056164248      2.2498447208344827      8.1563871886295907
    59   3      4.1322992039964239      2.1867288007169128      10.051091040355759
    60   3      6.1967953124641841  -0.0067957424550262194      10.009305903651184
    61   4      4.2285316431424036      3.7684274951010428  -0.0031777347526534996
    62   1      6.0671555464148161      6.0024795280784362      2.0165232322793623
    63   3      6.1117153569515938      6.1241096492226346   -0.084906569438673349
    64   3      3.9832966856560006      6.1617204165434947      1.9632708899603115
    65   3       6.183427633116505      4.0180740230286087      2.1473562180225167
    66   4      3.9924150036826678      3.5977434306950484      4.3054015610387637
    67   2      6.0392667293415245       5.971432074309762      6.0164662486402625
    68   3      6.0440780641099581      6.3713224676789659      4.0996559604402298
    69   3      4.1133660777146543      6.2841923175269576      6.1753223923966978
    70   3      6.0478203752237265       4.106494387503643      5.9569021903647528
    71   4      3.8492087387865177      3.6169399192708642      7.8934720624094048
    72   2      6.0800267752112429      6.0237140730219387      10.059464066927315
    73   3      6.1295817282113774      5.9963867011263794      8.1572768429270717
    74   3      4.0602183804621959      6.2386475809310289      10.200745691424439
    75   3      6.0151748439609216      4.1327839888365734      10.420878525265071
    76   4      4.2755168391725045      7.8995574854240989     0.13078882906608449
    77   1      6.0333292067835282      10.112468270734809      2.0189244121823293
    78   3      5.9056617853552948      10.392421457188245   -0.083352617194383499
    79   3      3.9415393006365322      10.359667239631833      2.0282151695830137
    80   3      5.9022730448208316      8.1216046579383487      1.8207289759915422
    81   4      4.2525547530237855      7.9130864077192529      3.7513137346003509
    82   2      6.1001702004839968       10.13129818912339      5.9582141519334586
    83   3      5.9799849760204733      9.9554510718056832      4.1028732791585467
    84   3      3.9965247719673402      10.086206664703985      6.3186723648624445
    85   3      6.0406717153884344      8.1855072315350395       6.414420184453105
    86   4      4.0156285999692738      7.9959603387286018      7.8134775410997515
    87   2      6.1355835591529431      10.013136261080922      10.208423483161878
    88   3      6.0045799165788427      10.452920445299739       8.231750353691222
    89   3      3.9784307349711443      10.180156635363092      10.177904073528619
    90   3       6.119298512210861      8.1296163994328214       10.00271775492779
    91   4      8.2867749120835814    -0.27207940649965862      0.2376922944459125
    92   1      10.121812239280192      1.9698202302891643      2.0223204936066161
    93   3      10.041778363909797      2.3188176171635235   -0.058640984022832493
    94   3      8.0501165358809157      2.0173408147330352      2.0495236821245317
    95   3      10.176393698408756   -0.032005362937716601      1.7041818452519457
    96   4      7.8718379036203912    -0.38607442274556525      4.0425107683825736
    97   2      10.050440761371565      1.9512574908437101      5.9668557426078817
    98   3      10.334943121313454       1.993313694843885      4.0654726139431885
    99   3      8.1423871748615166      2.1652663855411522      6.0396959783864874
   100   3      10.117103226643502    0.024574478432622233      6.2837641203404235
   101   4      7.8558849891114919    -0.20053221707459865      7.7654408686728189
   102   1      10.070991687748521      2.0134121064466517      10.082612310658508
   103   3      10.021534190857851      2.3498494602291107      8.0719672865637246
   104   3      8.0292765192723277      2.2669825109723289      10.280829801849341
   105   3      10.142424163567076   -0.042968342833041406      10.158481875551352
   106   4      8.0627114316966075      3.6797282076378881   -0.019173488322180202
   107   2      10.227772862560004      6.0212256030832174      2.0384181803797952
   108   3       10.06072525881325      6.0973916189959567   -0.043048621752001408
   109   3      8.1274162388513638      6.3106702441152329      2.0813026780569777
   110   3      9.9918039053576511      4.1040507308729905      2.2177749656055825
   111   4      7.9556936599583938      3.8916527187131873      3.7343369253126428
   112   1      10.072044815441979      6.0342327491157768       6.058466419614855
   113   3      10.119587515812805      6.3054919416292421       3.995400327873492
   114   3      8.0064598674841694        6.27123974142929      6.0373499360343974
   115   3      10.347375109110034      4.0165021414710331      5.9260133331954501
   116   4       8.133383461226364      3.7428490929479259      8.0111060691003697
   117   2      10.240392885122812      6.1156045721741021      10.010139724703855
   118   3      9.9770111270182298      5.8720490699867245      8.1383497902459485
   119   3      8.0289963273641263       6.040514110242917       10.37866470061094
   120   3      10.122122644467563      4.1358865471450095      10.466690799557156
   121   4       7.846313136745267      7.9144411813008624     0.35369735216431469
   122   2      9.9717702303889393      10.157933257580916      2.0189410578911016
   123   3      10.405180926500456      10.165187071921622    0.028273377012039885
   124   3      8.1001285510103038      10.029126275047167      1.9208041183665332
   125   3      10.240591275313363      8.1222101132466342      1.8493629502786149
   126   4      8.1193885855506931       7.773965245911028      4.0042564132098946
   127   1      10.023397840286345       10.15999668088666      6.0168622655852042
   128   3      10.213856350357387      9.9966983516431434      3.9662207718749523
   129   3      8.0016378244845647       10.19934565715722      6.2607266605821206
   130   3      10.106963824798353      8.1177817303779936      6.2163257119489117
   131   4      8.2830373538204043      8.0019929676551431       7.748246910033977
   132   1      10.094488213014934      10.053985393622531      10.172083808500652
   133   3       10.17286423967651      10.296642275833438      8.1065729509212598
   134   3      8.0160766566986705      10.388061124534445      10.154815631345986
   135   3      9.9601279042674378       8.047603774350554      10.028645060029982
   136   4     0.31814989698841561     0.13580660013705015      11.837378555131846
   137   2      2.1267407636035096      2.1080446355935987      14.182861750791007
   138   3      2.0581412721713606      1.9077273173774467      12.235199158729653
   139   3   -0.077788330419768209      2.0051340876045023      14.105523449093988
   140   3      1.9382790706443689   -0.028182217964320962      14.385754322136195
   141   4     0.32034356656412394    0.054597417806264828      16.181189772184542
   142   1      2.0911259572907421      1.9712847468542682      18.186845959904037
   143   3      1.7447568755792688       2.069336679636558      16.180976062996457
   144   3   -0.081588026718376894      2.1538769537508542      18.429861199777086
   145   3      1.7868387726455861     -0.0490184325156445      18.119939528076642
   146   4     0.27393889277110367   -0.096580566959656194      20.002791918072052
   147   2      2.1451805939020878       2.029546297891919      22.165851748664419
   148   3      2.0401845608188447      1.9818117391073085      20.272656668095408
   149   3   -0.013366091771746408      1.9056433294215867      22.329947012512488
   150   3      2.0494519890224643    0.085777876953192778      22.502976749247598
   151   4     0.10302572479814492      3.9473372195540239       11.88560859431648
   152   1      2.0340245513242894      6.0231308006703212      14.173119603483931
   153   3      2.0756264039217327      6.3604054727979884      12.150045109549049
   154   3    -0.10569009947944794      6.2152137581153992      14.162401814244282
   155   3       1.894019530170336      3.9995314337954126       14.18302376180181
   156   4     0.32265767316585037       3.941870205556989      16.195850732594135
   157   2      2.1785049267881105      6.1016152398080186      18.201016747044221
   158   3      1.7916087317650371      6.0129299072760167      16.259387035706578
   159   3   -0.091370357531102744      6.0620438245027417      18.394849500374427
   160   3      1.9451290089218911      4.1167812536373596      18.323901353941839
   161   4     0.29239706804531057      3.9456478978108263      20.021116701858478
   162   1       2.050571151371634      6.0326351962753737      22.262331946673534
   163   3      1.9988352120483908      6.2770275024215749      20.209115788265866
   164   3   -0.053976191204436801      6.1526106966360805      22.337847579732355
   165   3      1.8179792700511186       3.992069568007337      22.258724718062812
   166   4     0.15617667952623207      7.8001139125109704      12.046123047998154
   167   2      2.0192817620753498      10.048749049841522       14.19271772866551
   168   3       1.886333771196937      10.112505948368813      12.252065082892969
   169   3   -0.081754671766855844      10.244896433806522      14.368235431371923
   170   3      1.9275004313626847      8.1677020978551571      14.400895123236662
   171   4     0.22384894319335527       7.847669689613249      16.157121408050322
   172   1       1.982564161018785      10.092575197789433      18.217267259125002
   173   3      1.9663639424416157      10.431930912036414      16.184558699993314
   174   3    -0.10297990437861056      10.320671161699039      18.155015865083541
   175   3      1.7550838858204483      8.0560521747245293      18.132801467116263
   176   4     0.28941291996183843      7.9436595944532042      20.128268244651213
   177   2      2.0162905345775504      10.088651696538202      22.204537028816219
   178   3      1.7507125064563054      9.9838979979081497       20.26673809239357
   179   3    0.015498346687501304      10.206262212654513      22.433054924855956
   180   3      1.9795657049938244      8.1517116670723535      22.413462802288191
   181   4      4.3560681123103357   -0.035543996594614394      12.399461501911821
   182   1      6.1105956399670172        2.02991659561427       14.16106080057294
   183   3       5.862631089174327      1.8820093257680865      12.102836264939461
   184   3       4.009296837312168      1.9919434611496285      14.312523328346638
   185   3       6.024314469776713  -0.0027802387313483634      14.311298317385603
   186   4      4.3681439914966562    -0.27402912131579515      16.013988140646337
   187   2      6.1034435498476824      1.8683893277048971      18.259668946651406
   188   3      6.1949887611885206      2.2658331259008024       16.23751374318239
   189   3      4.1213359033644945      2.1333260390372231      18.150359149317644
   190   3      6.1924154646062446  -0.0029453085216158094      18.098393622444785
   191   4      4.2175432476518973    -0.38718212109371475      20.378045632195668
   192   1      6.1170141393475284      1.9454299315017647      22.259021342901701
   193   3      6.0273371102152522      2.0697006777408431       20.21034800924625
   194   3      4.0272416913341038      2.1560515716127613      22.436031055594764
   195   3      5.8974268977359374   -0.055249482548823191      22.348759658958464
   196   4      4.1809796014046494      3.7170913459399175      12.014887188060372
   197   2      6.0901911951622543       5.951994271614911      14.167047587458047
   198   3      5.9892646990842549      6.3818155754914114      12.164569357070192
   199   3      4.0836061916066289      6.2994453658919234      14.184749251997616
   200   3      6.0060214543626449      4.0741027849601572      13.975187719191954
   201   4      4.4263129646021291      3.8867191693029834      16.385906428164709
   202   1      6.1146889558971491      6.1043193303801129       18.20855309723046
   203   3       6.060245738976028      5.9762502498445613      16.144463623926434
   204   3      4.0461588446569348      6.1753988798435975      18.192989595474639
   205   3      5.9458291676792721       4.082469059067142      18.303727737706925
   206   4      4.3210806448758188      3.8276526566978779      19.999653499343804
   207   2      6.0011430163643693      5.9630536547243143      22.265579750997642
   208   3      6.0493255005502542      6.4299963032268996      20.285296766683899
   209   3      4.0837437313463703      6.1596559483497977      22.224230132054547
   210   3      6.0995825589919477      4.1032713948234738      22.132017427481845
   211   4      4.0053765072745131      7.7911208054846703      12.245856298608441
   212   1      6.0690788108115576      10.133054189708407      14.146528797825557
   213   3       5.888944382168555      10.096123433569478      12.112921494645772
   214   3      3.9414563489523213      10.259356321951495      14.269856006581687
   215   3      6.0550827881492042      8.1368063302241627       14.50612480801086
   216   4       4.267217473329513      7.9155190649383282      15.980898299292027
   217   2      5.8659081779569284      10.103058354211626      18.251876294417837
   218   3      6.0069297940650044      10.479462042820867      16.255105885508033
   219   3      4.0052857803990545      10.193876490767035      18.212087884522038
   220   3      6.1798962705773857      8.2070513299545595      17.977979022772352
   221   4      4.0956520448963136      7.8727516074815975      20.442122862382135
   222   2      6.1984764086312349       10.12493827847169      22.334836484247976
   223   3      6.1135974238564126      9.9385429159292631      20.209169535855626
   224   3      3.9867201960952352      10.243966382608582      22.096183072821852
   225   3      5.9222293856747008      8.1854327856270306      22.375964224674252
   226   4      7.9286516100899957    -0.23749235282261505      12.144179564423945
   227   2      10.053850264940023      2.0317755118643541      14.176237991312826
   228   3      10.407600941641688      1.9403900806896586      12.202607759857033
   229   3      8.1541076491797142      2.0041704321328506      14.081044444298755
   230   3      10.257148061186793   -0.027457736315143495      14.332606570662271
   231   4      7.7897110885216643    -0.25960722698873478      15.932978494205074
   232   1      10.133532668830453      1.9648345331925403      18.201678395667511
   233   3      10.048528095251196      2.2906463404638049         16.173863540425
   234   3      8.0742732130877961      2.2449231300395636      18.279619231828505
   235   3      10.105776690591238   -0.047512369244321166      18.226580827975962
   236   4      8.1942443482768361    -0.38990752527048145      20.160676153110952
   237   2      10.104945133353485      1.8419441205962288      22.284485576375587
   238   3      10.190687442927887      2.0829348100416953       20.30465695933437
   239   3      8.1527725179633634      2.1875305519981869      22.228454002901501
   240   3      10.142963993092945   -0.010688416095080569      22.423599268818645
   241   4      8.2111164549881774      3.9400713234780484      11.957095286478811
   242   1      10.106668193259706      6.0341330357568417      14.214872649413516
   243   3      10.164611844664472      6.3523568601682152      12.173444176613637
   244   3      8.0445414309973948      6.2575808920911236      14.103964342771375
   245   3      10.254090155197616      4.0043590106168816      13.968836236073825
   246   4      8.1054874875700609      3.7188627811945003      16.362390413957744
   247   2      10.062090962001605      5.9909672494843136       18.17801063428097
   248   3      10.194835204807498      6.1245647581319309      16.272136022310193
   249   3      8.1764796080985356      6.2121948528418418      18.346382130392403
   250   3      10.156435473897702      4.1303735737505987      18.375479683347361
   251   4      8.1382738834508039       3.663792741255107      20.225590452382779
   252   2      10.015160719512316      6.0641280881419073      22.275276779212792
   253   3      10.228845425812434      6.3345734268176646       20.25286126506256
   254   3      8.0978260779605851      6.2838370774927759       22.14250193605276
   255   3      10.092436624514356      4.1735644006221753      22.120223427932622
   256   4      8.2516649858779605      7.7786508709887148      12.157275782415283
   257   2      9.9870016198610916      10.156752197895775       14.12523301948273
   258   3       10.14764453375571      10.003868964990907      12.233562468035201
   259   3      8.1257358382911136      10.149519458664843      14.348353275885913
   260   3      10.249168611249754       8.205982520510462      14.382886184976684
   261   4      7.8756288939871979      7.9916226018030887      15.983401946244259
   262   2      10.031327327882584      10.115054480901279      18.228735797038862
   263   3      10.346595050386881      10.299274965479963      16.271630373641777
   264   3      8.1611924887710856      10.202164681197635      18.167166578983331
   265   3      10.280207658871564       8.201180909726812      18.190102746534624
   266   4      7.8866578785262158      7.9277933771254823       20.13397712319734
   267   1      10.042660961450981      10.108989719661668      22.273382886066795
   268   3      10.336351856816599      10.119236242092418      20.191535107772669
   269   3      8.0447370622577665      10.090534659334555      22.288098110320011
   270   3      10.393339747982095      8.0962832924811039      22.312504909777864
   271   4    -0.15797096383785483      11.892113249757868    -0.19831944727745282
   272   2      1.9546868198782996      14.108292328777877       1.896806050797593
   273   3      2.0708523506085901      14.197972791516204   0.0075519216293716959
   274   3    0.046165933959927144      14.490841230062481      2.0290296931479515
   275   3      1.8452068409876465      12.210467728181394      2.1903270875239302
   276   4    -0.39944546274127318      12.136385508708942      4.1550424322259181
   277   2       2.043461030998063      14.079852148075593      6.0145135142704342
   278   3      2.0219276472230439      14.420887612829977      4.0928789066174751
   279   3    0.067990667953880479      14.203730115610396      6.1720385742880213
   280   3      2.1144864090134985      12.168780505639104       6.073973651354291
   281   4    -0.21979556190009975      12.103352118260116      7.7473037798013351
   282   1      2.0032586688907696      14.118222399852618        10.0989379446683
   283   3      2.0130443147809305      14.313537033174518      8.0720413657694809
   284   3   -0.078481625360758853      14.191463822178958      10.380160672363223
   285   3      1.9938990557291121      12.114852824902044       10.40855630798599
   286   4    -0.12066048209198919       16.03314843356025    -0.19595050700508873
   287   1       1.993428284118218      18.213351820860833      2.0045002254879116
   288   3      2.2145111449159489      18.291514099086303   -0.027348096870693343
   289   3   -0.031512029248219019      18.187493560098847      2.2314518824287668
   290   3      2.2858346370774445      16.168899872734592      1.9715801394611758
   291   4     -0.1561498185499601       16.14129743513821      3.8140789275762228
   292   2      1.9132768787781917      18.237447310998242      5.9612421816877719
   293   3      2.1031954417351049      18.087155569391882      4.1122522537884389
   294   3    0.022706050063330752      18.406969657943186      6.1179119804784863
   295   3      1.9689770024204385      16.295242393948659      6.2769127559027993
   296   4    0.035560760412587912      15.925972604440421      7.8775638950456557
   297   2       2.078240914608088      18.195605755040376      10.041771595534986
   298   3      2.0163415780090466      18.411584362834617      8.1251108817207278
   299   3  -0.0087985047677149215      18.351181207999719      10.326978974141809
   300   3      1.8633486944781217      16.257624931207729      10.156445576280582
   301   4    -0.19292086529836183      20.538193303122817    -0.22233310229275369
   302   2      2.0680632149627463      22.147731184515624      1.8731845117086534
   303   3      2.0514392131811023      22.176109015396598   0.0085022440785822283
   304   3     0.10377946299410963      22.297687738190128      2.1674145104037503
   305   3      2.0326850630992461      20.261940652186485      2.2691010243453507
   306   4   -0.065243359950303462      20.223675308744145      3.6934246087596523
   307   2      1.9885923457558967      22.311863353818051      5.9936379992301889
   308   3      2.0892428456906234      22.413203154240897      4.0935739012343992
   309   3    0.039466872176515885      22.106441812581828      6.1074239873188718
   310   3      2.2311630111172631      20.224680602456964      6.0320100768251717
   311   4    0.086258872103438772      20.487137379667772      8.0624448086738383
   312   1      2.0515767879603612      22.301467062624152      10.111049071809129
   313   3      1.9423932399654955       21.97901583644855      8.0836069355602262
   314   3   -0.062034137400816598      22.027382792132119      10.236992297159821
   315   3      2.0719493451023414      20.214640554490103      10.367393699652782
   316   4      4.2271472719840366      12.119118429189223     0.15167010108396828
   317   1       6.005213108503237      14.227744310491676      1.9702408352875089
   318   3      6.0153050303358873      13.856253776132892   -0.083640609684133421
   319   3      3.9800341419796461      14.047382439530422      2.1359610254596797
   320   3      6.1180706012026844      12.137985862834642      2.1503070106042532
   321   4      4.3399178177431939      12.338845191882003      3.7884958952334018
   322   1      6.0233053819579894      14.142383415119882       6.085053052207793
   323   3      6.1881672148550351      14.183041545665958      4.0558526415174905
   324   3      3.9922865355556616      14.337153731664843      6.1845003776864615
   325   3      5.8545033906460766      12.087300676850365       6.039876992093852
   326   4      4.2119945226494666      12.019940309468275      7.8570170425085797
   327   2      5.9885973356587128      14.144875774309773      10.055928099092778
   328   3      6.0912494372013093      14.116954502450527      8.1613960098581018
   329   3      4.0532342404842279      14.460500442374549      10.155673411817935
   330   3      5.8793854866833675      12.222988003761992       10.39686182662679
   331   4      3.7076172443163524      16.244210670047877  -0.0089316432481170681
   332   2      6.0436431516241171      18.198761310800041      1.8774622831626104
   333   3      5.9226129388335425      18.411809095582992   0.0024007119675006463
   334   3      4.1133260451271845      18.283144519069992      2.2361463393540442
   335   3       6.091700313224619      16.240311422442236      2.0327298609334385
   336   4      3.8586451896942866      16.166123205929207      3.7251242330945677
   337   2      5.9386737250564421       18.18417584047921      6.1115853800557991
   338   3      6.2814376346004641      18.148324937367299      4.1175502691191843
   339   3      4.0643080771486666       18.16133526844877      6.1426034205445816
   340   3      6.3075061165865796      16.237416131074891      6.1579019312458732
   341   4      3.8067860324031506      15.883441952028113      8.0231091374534973
   342   1      6.0484108096877449      18.185805381669294      10.107422132150107
   343   3      6.3060439078552406      18.255363395560845      8.0615831138921443
   344   3      4.0124833778947329      18.169595428432292      10.189233659238798
   345   3      6.3307631589253424       16.15795024839419      10.067320312466292
   346   4      4.2160923207182632      20.147128182337919    -0.28217554046572435
   347   1      6.0791099601510252      22.210967382568011      1.9854094544010776
   348   3      6.0212092455791808      22.202464239776496   -0.040847999548724132
   349   3       4.009364773747337      22.220516449874619      2.1804500300962744
   350   3      6.1178930852208531       20.18787005749472      2.2689820003405057
   351   4      4.0504282919164973      20.210548067918161      3.7271583977445251
   352   1      6.0582625916282984      22.214092909709553      6.0762728150437777
   353   3      6.1048169544880109      22.422007407787738      4.0574474183569578
   354   3      4.0205482501029772      22.299285329068113      6.2904948755141454
   355   3      6.2247830862090403      20.171929262307469      6.0363785621505555
   356   4      3.8100372299916652      20.504981703977734      7.9504595942143164
   357   2      5.9608137164465109      22.138945055417068      10.099674733422182
   358   3       6.358092806451574      22.163705210689166      8.1811180007129867
   359   3      4.1054084623102511      22.224975731926396      9.9894498683606745