(written by ASE)

1080 atoms
4 atom types

0.0      24.299999999999997  xlo xhi
0.0      24.299999999999997  ylo yhi
0.0      24.299999999999997  zlo zhi

Atoms # atomic

     1   4    0.080613663240889116   -0.036953672789023922    -0.35718575621697729
     2   2      2.0274576237556525       1.869536722890444      1.9874970917053654
     3   3      1.9124158310693675      2.1972391802173377    0.048025800186300815
     4   3     0.05998616329150705      2.0116949389715515      2.2341302763538922
     5   3      2.0842324030244535   -0.015383166555099749      1.9923862928078009
     6   4    -0.14755577805796019    -0.24125401063005103      3.7265140141225483
     7   1      2.0309030407136781      1.9330589619629475      6.0191000613552825
     8   3      2.1317729682739412      2.1241005751991531      3.9852856761218076
     9   3   -0.007831553510478307      2.1621465630814054      6.0697715665148833
    10   3      1.9934885140666794   -0.068535496045411995      6.3352001475599851
    11   4     0.19911487886934828    -0.16179937082870274      7.9365269057921504
    12   2      2.0985391077267948      1.8780170563965266      10.134211371979259
    13   3      1.8913963012759156      2.1493209620139639      8.2226027538063882
    14   3   0.0099941169183681115      2.1067120704496505      10.402318391979955
    15   3      1.8117750180443135    0.017988214886342238      10.096186175192647
    16   4     0.19600563064109872      4.0818931751840406    -0.30122379464264792
    17   2      2.0584103342518039      5.9587569978251764      2.0113584670762821
    18   3      1.8482536360791064      6.0694999464055552    0.066546863572546286
    19   3   -0.025093682564253834      6.2521707647413747       2.143098571352541
    20   3      1.9257522860750382      4.0831846063105042      2.1179451546929027
    21   4     0.29367331115632367      3.7297971626517059      4.1549503468582536
    22   1      2.0647841057117158      6.0513218497980183      6.0413438165809659
    23   3      2.0034724241323607      6.3276798948582114      3.9879096913019363
    24   3   -0.022579686273358317      6.1580825364863925      6.0333490611183773
    25   3      2.0474128771911988      4.0455533576627323      6.1473624836427341
    26   4     0.27998760755743524      3.8700163090664557       7.755199014913317
    27   2      2.0816247808778434      5.9620147895445337      10.132073695313313
    28   3      1.9109535263134225      6.1531940700360215      8.1894370001549088
    29   3    0.032172702747275246      6.0644770331795232      10.338544117915571
    30   3      2.0066043903872663      4.0509984219517738      10.303007143931721
    31   4     0.16259198187425575      7.8704579344319958    -0.23466989411919062
    32   2      2.0630070684639739      10.078140655569202      1.9924929655793002
    33   3      1.9694617712742377      10.330242491300655   0.0038316235459485075
    34   3   -0.028398353374197292      10.204213201638787      2.0029858372334317
    35   3      1.9718118899898789      8.1846662942260497      1.9102763146012463
    36   4    0.032644981355204737      7.7398220929956363      4.1081579096806013
    37   2      2.0069784107944875      10.022046155720361      5.9600749976135434
    38   3      1.9943260966526986      10.099804327051903      4.0443401621087318
    39   3    0.065155929741090329      10.330215395114436      6.0925375823751127
    40   3      1.8956518143596695      8.1617897593573705      6.1976564826898013
    41   4    0.063902380722053315      7.7581831929972118      7.9573744375805733
    42   2      2.0569988124908778      10.139950848262789      9.9986625874920598
    43   3      1.9201508352963332      10.251762675522137      8.1233746011576837
    44   3   -0.068534277807542371      10.291408189524844      10.259674364687093
    45   3      1.8048398642590897      8.1849515063247473      10.123907894035725
    46   4      4.3357802164839221    -0.21009598335039689     -0.1364228288194792
    47   2      6.1526623079791145      1.9915658593341174      2.0383462139328956
    48   3      6.0774703572829205      2.2654114835423087       0.028833031423249
    49   3      3.9908609760157843       2.230490802010002      1.8870043009241653
    50   3      5.8853340035687518    0.055289591728839162      1.8835872775905669
    51   4      4.4042277293673022    -0.29164355629310684      3.9148841551429947
    52   1      6.1004289416323187      1.9872535498918713      6.0168780736255041
    53   3      5.8399603283918262      1.9089646013678416      3.9857955736908637
    54   3      4.0425155482843236      2.0473617928496624      6.2428064818435924
    55   3      6.0800424322615712   -0.017314866191946787      6.2886686658067426
    56   4      4.1973745377141354      0.1081628604968842      7.6402460334909135
    57   2      6.1803295313223154      2.0446095349397622       10.08372725868648
    58   3      6.1614210940605334      2.2067677810272781       8.162111182112838
    59   3      4.0162597983803643      2.0061475370027249      10.095497978795347
    60   3      6.1913051243130237    0.014926675934736523      10.055819639227648
    61   4      4.2375166091728049      3.7819986263045879  -0.0053106874927256742
    62   1      6.0454775991524112      6.0192012377289119      2.0373970268113095
    63   3      6.0861715459379395      6.0848145666209348   -0.073472407025453379
    64   3      3.9752407977951738      6.2064842354991283      2.0052358673328667
    65   3      6.1293670209477646      4.0170465307840111      2.2066168680779765
    66   4      4.0496782600825778      3.5990381984430888      4.1941292134537829
    67   2      6.0819386553339418      5.9268390760277434      6.1156635915758812
    68   3      6.0421197357516503      6.3743965820857857      4.1061151274136938
    69   3      4.0842074387026175      6.2948241803346976      6.0639030532330587
    70   3      5.9873362236085361      4.0569725378684121      5.9342915666451432
    71   4      3.9058546781289079      3.7766315592988575      7.7290778549851131
    72   1      6.0884620066026782      6.0358820471684709      10.082216147816396
    73   3      6.0028094878349698      6.0277147463430225      8.0499540394986369
    74   3      3.9937550427726558      6.2490527524082822      10.167273129594735
    75   3      6.0249989391063643       4.000022902179742      10.452114043327622
    76   4      4.3246719701400993      7.9713269645853906      0.2366592335656196
    77   1      6.0384393799365466      10.102912056813173      2.0355021947210057
    78   3      5.9126134955681255      10.373756958225863   -0.081579554578184305
    79   3      3.9478995648030195      10.212931470182511      1.9689437066369062
    80   3      6.0381972127689094      8.1154912594396151      1.7697647591947827
    81   4      4.1183747521584273       7.728527338131034      4.0336261848413866
    82   2      6.0636594780302122      10.116136448963449      5.9575061269694354
    83   3       6.016847158291073      9.9779689052817684      4.1021558543194869
    84   3      3.9852481219385396      10.105652734850803       6.282385816877543
    85   3      6.0540323136328738      8.1811751314222274      6.3556885535011558
    86   4      4.1973295742764547      7.7774138610769974      8.0060978880429676
    87   2        6.14391859184766      9.9792363283528687      10.191807128201912
    88   3      5.9853497957276094      10.450498658501857      8.2230681342815544
    89   3      3.9703878412726619      10.140804727330311      10.162006337940797
    90   3      6.1073255531673079      8.1329416738537308       9.988891664377654
    91   4      8.3325083493119152    -0.26651804267799534     0.24058634580157162
    92   1      10.130148620678179       1.981365052882331      2.0288963600116525
    93   3      10.051995235871706      2.3446152607237885   -0.058995694226137853
    94   3      8.0675123140889511       2.039822743680848      2.0757306568474889
    95   3      10.160299389897711    -0.01122286601712659      1.7241559397843722
    96   4      7.9177466123374414    -0.40293742037622876      4.0451494562357562
    97   2      10.046166744433307      1.9398436262168128      5.9680072494663658
    98   3        10.3221599060551      1.9913081829978998      4.0692884902189688
    99   3      8.1316909485200011      2.1745402939366829      6.0482195931367908
   100   3      10.108017835875582    0.024880995923459492      6.2900001471266007
   101   4      7.8290149061045904    -0.18578571868310925      7.7818117433262861
   102   1      10.103983324447602      2.0138243263912194      10.076396071885155
   103   3      10.012604775311981      2.3687055345000783      8.0661929381966573
   104   3      8.0757547741018278      2.1484438621496911      10.305739159097902
   105   3       10.12254507424953   -0.046305689608114216      10.157863486868283
   106   4      8.1039734243904444      3.7124233210102067    -0.10179042740109913
   107   2      10.254758549818662      6.0490001828100262      2.0549119255264374
   108   3      10.095195519396793      6.0782807151250493   -0.040410594506368018
   109   3      8.1251737908051034       6.242068010526431      2.0860227669134668
   110   3      10.012058818210956      4.1150170331341238      2.2319701123358633
   111   4      8.0422248654641777      4.0383721733274927       3.705517462394146
   112   1      10.085642837691639      6.0459180828262706      6.0256310623450755
   113   3      10.112802558308456      6.3274800019393425       3.986439890338167
   114   3      8.0232165264558635      6.2077788816758455      6.0241641031199658
   115   3      10.326114655242639      4.0210360042677573      5.9175827866049158
   116   4      8.1590598429852097       3.792919615691408      7.9196302313519427
   117   2      10.153636942973367       6.093513105667574      9.9713045310767097
   118   3      10.023211958447598      5.8527952111472228      8.0974067581084128
   119   3       8.141762999240143      5.9911885750538794       10.37930844732575
   120   3      10.140368120126354      4.0915046108837743      10.432653143367261
   121   4      7.8725476243035946      7.9021368848686118     0.34003438306548744
   122   2      9.9748319042146907      10.195429778355399      2.0212705708531447
   123   3      10.391728577644532      10.217790843323318    0.054572813620334282
   124   3      8.1120786852238105      10.097179322523125      1.9480315717733045
   125   3      10.202106345577578      8.1347258963139844      1.8197687520265782
   126   4      7.9753967785438267      7.7909553294164402      3.9325930239139129
   127   1      10.005685872137837      10.148483023845499       6.012935680197085
   128   3      10.219794512363555      9.9781682627369523       3.974090078967663
   129   3      7.9814134904900902       10.18498008374185        6.28796263570697
   130   3      10.106141956486693      8.1105017543729527      6.2390893201069026
   131   4      8.2555343062055968      8.0050624634930276      7.7316028276761033
   132   1      10.093290118699819      10.062832642793921      10.154885589574057
   133   3      10.165005831725944      10.286446979257811      8.0986785723570112
   134   3      8.0258508425947941      10.360708012216717      10.139681054980269
   135   3      10.049040045423734       8.045669828414292      10.030835839464434
   136   4    0.019076423727555775    -0.10587546485893751      11.865083312779369
   137   2      2.1160472152732388      2.1361380334731184       14.18049081915361
   138   3      2.0762572876666896      1.9241022274516759      12.202531567865082
   139   3   -0.062662322319736591      1.9941156539410601      14.145369445398936
   140   3        1.97800011569585   -0.019953194276361358      14.401184764372914
   141   4     0.34295619133128852     0.05022479250289609      16.188998039131686
   142   1      2.1002871069357401      1.9828624128106429      18.191787831200031
   143   3      1.7727649013347182      2.0764050385060315      16.176066835046569
   144   3   -0.090623974720723768      2.1206651270795174       18.40285078664165
   145   3      1.8169055107487608    -0.04047144209589823      18.137606216146896
   146   4     0.29494000611865673   -0.094580826057222761      20.025479954002293
   147   2      2.1596545242823009      2.0122727878175031      22.179183014753164
   148   3      2.0132183406131863      2.0054086711741741      20.280275868053575
   149   3   -0.021907408784518148      1.9139254392446119      22.330896841097196
   150   3      2.0322799031472676    0.083666084495947979      22.468840534139034
   151   4   -0.066248810067335809      4.0323946217675459      11.852440358415103
   152   1      2.0423005482165011       6.037413400331916      14.164909094878276
   153   3      2.0446875669545759      6.3375525050323578      12.133635158615016
   154   3      -0.109020894568042      6.1997848809626692      14.240040492725013
   155   3      1.9158221087580001      4.0147651754177556      14.198704740965805
   156   4      0.3681921209681861      3.9775692408595584       16.24016396786768
   157   2      2.1861006698119083      6.1138762673006708      18.230172297352158
   158   3      1.8413384748620834      6.0305840598767508      16.273151773311064
   159   3    -0.10842529650664677       6.097142332293469      18.287189459360032
   160   3      1.9079068450875964      4.1172092448971425      18.297448872617991
   161   4     0.36061620188878951       3.991842627461522      20.094773321439554
   162   1      2.0536922316643058      6.0387105134906429      22.263238910411971
   163   3      1.8749399435027216      6.1858414717154329      20.212025664028829
   164   3   -0.062087495333574959      6.1165434067077715      22.381655411950867
   165   3      1.8045214682996953      3.9916757547960797      22.254538830510299
   166   4     0.14448533290272672       7.811644891236309      11.972116801042421
   167   2      2.0368282177424013      10.023258782873841      14.183251117917989
   168   3      1.8677342483831103      10.114579144724193      12.240874270212212
   169   3    -0.07094775118000049      10.231364181666542       14.37089838364567
   170   3      1.9232538402878876      8.1550969972763845        14.3916003927348
   171   4     0.25522841223846177       7.853414168797924      16.175590939230204
   172   1      1.9944159003431408      10.098762524225233      18.234414675563958
   173   3      1.9843725690810841      10.412731869765619       16.17786681464105
   174   3   -0.084652779209258747      10.264741966614375      18.135580656911305
   175   3      1.7987160131673194      8.0584087843792762      18.180522600760447
   176   4     0.33837840090387616      8.0197049046183793      20.203205032385217
   177   2      2.0531110254611749      10.106698332464646      22.267855389767654
   178   3       1.749966975499875      10.010826084437497      20.285024805146723
   179   3    0.016398825665865192      10.255954219183314      22.399086682839062
   180   3      1.9057305731331471      8.1489882036358399       22.35774687244589
   181   4       4.404575416565188    0.023981464629946509      12.419493775372795
   182   1      6.1235984226445206      2.0271470015291531      14.179529880227088
   183   3      5.8465177349351869      1.8563271746577883      12.129482074305361
   184   3      3.9984213883438451      1.9973844475494082      14.297998924849129
   185   3      5.9921814257296173 -0.00046006922276753696      14.342099322050711
   186   4      4.3511522389283703    -0.25393515939320083      16.011988933670356
   187   2      6.0982976337729271      1.8769661186823914      18.256063277291915
   188   3      6.1825552989819261      2.2776181315403456      16.245047938731609
   189   3      4.1241044890733374      2.1517377010899801      18.175962819961359
   190   3      6.1799217176084991   0.0028215594355690257      18.098445924918813
   191   4      4.2476752268179698    -0.37097548334791414      20.407476144650058
   192   1      6.1220709075369921      1.9586573594761789      22.258370904061337
   193   3      6.0461692101895421      2.0573609741155652      20.216494883154269
   194   3      4.0326672868340365      2.1737451837538022      22.428057380965189
   195   3       5.868001313293818   -0.042031771782499644      22.356083167621627
   196   4      4.3680384439355313      3.8741595208590098      12.129865708586934
   197   2      6.1180484797805752      5.9634721632252718       14.18199921828046
   198   3      6.0220103432166807      6.3188647558119628      12.206758516734501
   199   3      4.0872066521278105      6.2853640535148685      14.169740977729688
   200   3      5.9851314522543824      4.0619974221538602      13.982292273636549
   201   4      4.4390396720429823       3.923839552768781      16.384156435411082
   202   1      6.1210744996585342      6.1108042557750846      18.221869156647784
   203   3      5.9850151328869465      5.9541846085808787      16.172428933464648
   204   3       4.049523776599397       6.148753888587998      18.283865551512779
   205   3      5.9737408689867255      4.0865391805521165      18.345500463033847
   206   4      4.3363110123091744      3.8406066575940563      20.011392933338595
   207   2      5.9766459339444902      5.9740609866142895      22.282501835121128
   208   3      6.0865190314223074      6.4536982060605377       20.29997899794984
   209   3      4.0748828318153985      6.1702891322315683      22.182391272116515
   210   3      6.0912287134074292      4.1105702876626511      22.124497183654828
   211   4      4.1103163777281706      7.7429059515913687      12.188160627595463
   212   1       6.072977543686445      10.126778636001974       14.14541277011808
   213   3      5.8816322050816643      10.090292087417314      12.107855360608253
   214   3      3.9491007682818231      10.258427975399396      14.250132608490819
   215   3      6.0666778034383597      8.1210152605958186      14.509663372972087
   216   4      4.2859778920398846      7.8711036301727919       15.99319455781737
   217   2      5.8735256449231033      10.094843259220436      18.244371670955029
   218   3      6.0001301925491832      10.478764886940038      16.253006300624737
   219   3      4.0093461409907025      10.237443475898251      18.227312023423998
   220   3      6.1197956753496747       8.198871455239173      17.981192485915269
   221   4      4.1785380173202809      7.9389356630528685      20.444951510163008
   222   2      6.2081806833189592       10.13037243746875      22.339723069286791
   223   3       6.101877872263973      9.9096971192509038      20.217145832377941
   224   3      3.9992403197581101      10.181833997475133      22.069378226001113
   225   3      5.9525872014561143      8.1806379567242686      22.394140426193921
   226   4      7.9575775975489567    -0.17502568084323022      12.003550185020575
   227   2      10.065416213734082      2.0596027007646267      14.127408627598555
   228   3      10.382168899268397      1.9071276522996705      12.205598486137955
   229   3      8.1623441863887987      2.0011978425759263       14.16711318065645
   230   3      10.259064068823909   -0.036443648640277639      14.339304384901027
   231   4       7.791424611686339    -0.23931334411362595      15.919656106389171
   232   1       10.13356686670345      1.9656876297953634       18.21094077129219
   233   3      10.088632109482063      2.2848581804485635      16.194139346058535
   234   3      8.0786977763805776      2.2384923779404819      18.273070831861894
   235   3      10.115397206767934   -0.042236166319875153      18.273279636580401
   236   4      8.1560574899261056    -0.40297763089600636      20.152974372456558
   237   2      10.119152948102959      1.8622954903173383      22.270760425016618
   238   3      10.188290258627061      2.0949894231608788      20.305400488214126
   239   3      8.1585295567703096      2.2237860483722192      22.249163280478601
   240   3      10.119633499946904     0.01427139841687311      22.439552543610176
   241   4      8.1791333583364452      4.0867211475608078      11.863127076722019
   242   1      10.117421047610753      6.0533413162209753      14.220879276597231
   243   3      10.177791862034978      6.2984270654779477      12.193152568998377
   244   3      8.0606371251098032      6.2376339215966325      14.168574477350687
   245   3      10.275251049160048      4.0103446088726411      14.008511699241591
   246   4      8.1477706082690364      3.6804139724591116      16.330301613063309
   247   2      10.044603900758146       6.019474009347948      18.180461335326815
   248   3      10.226980512072647      6.1067465876889173      16.283851741114319
   249   3       8.169319418267504      6.2370419413392497      18.342615564589451
   250   3      10.156779588571363      4.1540148581536069       18.40615249000804
   251   4      8.1105183969669365      3.6802179119611109      20.191079087042969
   252   2      10.015090485989367      6.0738825774298348      22.285323833951086
   253   3      10.206744195132089      6.3624754973319018      20.263823640083334
   254   3      8.1014836619266486      6.2745494860828543      22.172164332094447
   255   3      10.103851723671234      4.1850015001173846      22.123138663626111
   256   4      8.1671489643178248       7.700975336217545      12.056402801308126
   257   2      9.9795991754991942      10.152503582442089      14.089249850793946
   258   3      10.139373548125542      10.006427072078395      12.213088921377411
   259   3      8.1172404520778585      10.130987587615245      14.349263252185249
   260   3      10.210214068283669      8.2040381018238264      14.426328557304945
   261   4      7.9409706104385158      8.0335589339767512      15.929800734998864
   262   2      10.008486987957591      10.124414366650772      18.210265714977446
   263   3      10.332287190583276      10.275988894345044      16.275082691697129
   264   3      8.1394315736831508      10.146944126842621      18.173038537978936
   265   3      10.309689247907388      8.1921012995408837      18.195936471996902
   266   4      7.9148793160455195      7.9299556157358753      20.168941977864325
   267   1      10.055724645510359      10.125551187588879      22.274692077350924
   268   3      10.338823976825376      10.101224127963425      20.197903004141654
   269   3       8.057273783830917      10.131390893273442      22.302744891775511
   270   3       10.38127429616198      8.1083783386927752      22.339504195924405
   271   4    -0.13901858046132248      11.870822762347933    -0.14982503313406434
   272   2      1.9683352075751603      14.107203207689727      1.8938410490644959
   273   3      2.0891487322335092      14.235809371464507    0.005352215828619492
   274   3    0.051437514311399875       14.48694098009314      1.9988795366278804
   275   3      1.9021224042457561      12.201264483484868      2.1320769003224931
   276   4    -0.36922638126273716      12.068952556221671      4.1778913813298715
   277   2      2.0344617719645699      14.076254177655986      5.9980415261061131
   278   3      2.0052962298261994       14.38574166064144      4.0775845087141356
   279   3    0.063400617255691211      14.228568302462371      6.1837077778022902
   280   3      2.0778759683274624      12.177828803304068      6.0946754135674652
   281   4    -0.20256317959252551      12.068641047552306      7.7337563852631961
   282   1      2.0067302537768015      14.101410047389994      10.092793354436143
   283   3      2.0087093699773027      14.340175061329461      8.0725393447507159
   284   3   -0.076572909092746694       14.20780197264804      10.364486025149759
   285   3      1.9712974584551846      12.095972724389066      10.370140221744489
   286   4    -0.12849554415778311      16.024427874887436    -0.18434031826752958
   287   1      2.0060950232002948      18.224977573927962      1.9927815647709806
   288   3      2.2461011852528876      18.316912959096157   -0.043367744083434613
   289   3   -0.030699483603477289      18.191027761834988      2.2466155288984893
   290   3      2.2684329665407064      16.188083913560735      1.9730713195065186
   291   4    -0.11720893267715977      16.153943367006917      3.7697076156947191
   292   2      1.9375877725606787      18.210494861825083      5.9546686018193151
   293   3      2.0977859099447844      18.153335487632408      4.1086379276663338
   294   3     0.01782940201125684      18.366214255486145      6.1244072661100821
   295   3       1.968980958301136      16.294459964218859      6.2558168986298766
   296   4    0.059468108002745004      15.898455491065743      7.9071960116283151
   297   2      2.0677192312576174      18.179027661445243      10.062498622371495
   298   3      1.9578151357867648      18.413751091008756      8.1421272856139826
   299   3   -0.021294945227297093       18.39508066602108      10.318270197851076
   300   3      1.8574886942434328      16.260126190599912      10.169755934214525
   301   4    -0.20196986960823712      20.533059845859768     -0.2179926757439733
   302   2      2.0735063285917321      22.147019803973098      1.8615829421699628
   303   3      2.0638144931874982      22.184937514800072  -0.0026894959221161851
   304   3    0.097775614382397041      22.309116120387056      2.1327654212918161
   305   3      2.0188412127814139      20.265241985985377       2.227962652572312
   306   4   -0.035036803216479451      20.199789300434659      3.6732514431215844
   307   2      2.0491421255008162      22.314400697299135      5.9702649473556511
   308   3      2.0376343891409072      22.404534074959702       4.080384127777994
   309   3    0.029444190153533806      22.246552983279596      6.1749729779268057
   310   3      2.0803749932141846      20.250244516165726      6.1171574636016572
   311   4     0.17292827147264883       20.35643653011719      7.9546229292663906
   312   1      2.0244116445478473      22.282279765028935      10.124304156483769
   313   3      1.9024626898259316      22.050401200125375      8.1036633800947655
   314   3   -0.059627907790530094      22.225285932455478      10.379354156486752
   315   3      2.0407782982973139       20.24206994536415      10.338678025738801
   316   4      4.3246054631860682      12.149385945164699      0.2582962561484804
   317   1      6.0519505690599438      14.239318742955334       1.944451999401033
   318   3      6.0529051194776669      13.850387268647721   -0.084162265203341968
   319   3      3.9917591920583719      14.109519578230165      2.1308745984956841
   320   3      5.9936545603990172      12.134258371067165      2.1698734061867571
   321   4      4.3532680228946168      12.428884641096111      3.8433747637691078
   322   1      6.0331691385222621      14.164928319644412      6.0802893409451189
   323   3      6.1710336843473605      14.151066178318139      4.0522625921315285
   324   3      3.9849301044859251      14.323036727218637      6.1863244703868379
   325   3      5.8607699678908123      12.099696396741781      6.0465019627640766
   326   4      4.2203691340814702      12.034024704177183      7.8464150899041964
   327   2      5.9957900892211518      14.141673705729845      10.049422173522329
   328   3      6.0698761476561227      14.123241147146439      8.1551259695450948
   329   3      4.0491568894107832      14.461162902405174      10.157015481624544
   330   3      5.8850581266565918      12.230112780882253      10.394838975799294
   331   4      3.7099307621857127      16.238623875471589   -0.011037338094142961
   332   2      6.1065833829994851      18.195411168598703      1.8549760854380266
   333   3      5.9886204002796095      18.342394406366058   -0.013895003371442638
   334   3      4.1201899527812849      18.310306373901792      2.1978560953549375
   335   3        6.01522142249841       16.25009391520776      2.1340725401977783
   336   4      3.9251863791235935      16.200928370905771      3.6568312287477056
   337   2      5.9171055439154472      18.232281732239343      6.1205788805194752
   338   3      6.1580830881777606      18.172185832171525      4.1607254329783059
   339   3      4.0240529029019116      18.217913007660961      6.2177793744729835
   340   3      6.2704715672947664       16.25442646472824      6.1719579315755091
   341   4      3.8314000122606977        15.8701218132916      8.0186830535081342
   342   1      6.0422468059922521      18.211091305115428      10.113234812882988
   343   3       6.321186144834618      18.255951896868105      8.0876008389736569
   344   3      3.9983910742031199      18.228361633959448      10.175017728239602
   345   3      6.3014636062341571      16.168853635815505      10.075832562308223
   346   4      4.1473073839844776      20.042656303881987    -0.23086413086485463
   347   1      6.1078481389289276       22.19177372510736      1.9838374275136088
   348   3      5.9646872429838815      22.242553703692995   -0.034384999433610147
   349   3      4.0085717815267818       22.23122349365897      2.1600076776669517
   350   3      6.0743182440162329      20.182523152128145      2.2790318839615451
   351   4      4.1370388781843452      20.199578513734775      3.6914450699890415
   352   1      6.0634507610307278      22.214684280464372      6.0479129779968268
   353   3      6.0921404803275241      22.470215959311616      4.0385795840602512
   354   3       4.005350776761416      22.279497679387422      6.2755331054755423
   355   3      6.1712144632170824      20.188018991897771      6.1139858636039559
   356   4       3.794718536104186      20.513961978381012      8.0063458655695054
   357   2      5.9311463398237283      22.218991862516535      10.107070830976415
   358   3        6.32692673251921      22.186756515116301      8.1837020704284313
   359   3      4.0691639150299919      22.225692788494598      10.000417307012244