(written by ASE)

1080 atoms
4 atom types

0.0      24.299999999999997  xlo xhi
0.0      24.299999999999997  ylo yhi
0.0      24.299999999999997  zlo zhi

Atoms # atomic

     1   4    0.074994256577688309   -0.043386850071425689     -0.3554742834761126
     2   2      2.0283887902729933      1.8674237925183925      1.9876150253908036
     3   3      1.9077802996607247      2.1964636240328277    0.046594513153579084
     4   3    0.058356009679316215      2.0181994704221915      2.2381374983496904
     5   3      2.0735616216961441   -0.017896478376672249      1.9881610662357014
     6   4    -0.14474617812610974    -0.24568788069613429      3.7302792795826978
     7   1      2.0266902190057636      1.9295891314585043      6.0264431590771528
     8   3      2.1317594424567483      2.1183665890588754      3.9860956515433705
     9   3   -0.009941812906976974      2.1756121172127791      6.0579158865574314
    10   3       1.991547132519552   -0.071445512818696461      6.3321955331653408
    11   4     0.20954502978076744    -0.20651464930493524      7.9558617358137242
    12   2      2.0716290836264428      1.8931339423781923      10.114529115899877
    13   3      1.8872657786383784      2.1517294179549262      8.2097106803953483
    14   3    0.017676912450172937       2.118227983798024      10.409496287562812
    15   3      1.8329639376487405    0.023822992692090299      10.104269659826981
    16   4     0.19910810848241867      4.0767672783212241    -0.29585796087987126
    17   2      2.0594384548091784      5.9572007070910367      2.0114923189641312
    18   3      1.8468830797228704      6.0679633005091809    0.067179876822538537
    19   3   -0.026761655443763008      6.2439919113843185      2.1436316562541227
    20   3      1.9341767960360123       4.081303053017348      2.1174013948831734
    21   4     0.28892533044132218      3.7281250391272023      4.1525086836599669
    22   1      2.0662722920466936      6.0521461468213564      6.0417446856162735
    23   3      2.0049434861080133      6.3298861284260672      3.9868174435662613
    24   3    -0.02495762537510374      6.1580078407837222      6.0328729371295715
    25   3      2.0526943351696247      4.0469298944029006      6.1345987531028907
    26   4     0.28098253338319423      3.8848186104459987      7.7412888923456462
    27   2      2.0771228645102191      5.9694654705906567      10.128899247390306
    28   3      1.9047989980972362      6.1538572950045767      8.1879834111748675
    29   3    0.025076735957216371      6.0671463843166924      10.339330396773729
    30   3      1.9981025713502438       4.058395438414685      10.306727612769636
    31   4      0.1635386655516114      7.8688665509344453    -0.22913450848689715
    32   2      2.0660418491525547      10.076512749498782      1.9919921511807863
    33   3      1.9646534168344947      10.326114312730768   0.0038500382216692117
    34   3   -0.028610162951096849      10.214221193993835      2.0034616437361161
    35   3      1.9590432639614006      8.1831261043188785      1.9091768799200632
    36   4    0.031477555319204514      7.7401634708224885       4.104630027786528
    37   2      2.0051871934802907      10.024734957290329      5.9573688011861909
    38   3      1.9973370639705232      10.100448624227754      4.0421545448272598
    39   3     0.06623206950932746      10.333035591662378      6.0890214593347807
    40   3      1.8930055553351044      8.1636275724581537      6.1946310524642128
    41   4    0.051833118492850189      7.7655593167012569        7.94202583633649
    42   2       2.049078620395179         10.137193415951       9.994188523794282
    43   3      1.9235597349887863      10.253952354095478      8.1204674568136284
    44   3   -0.066666836515879652      10.290183582558356      10.263163521604312
    45   3      1.8035556733130849      8.1847649283251016      10.120310283833772
    46   4      4.3530521043890937     -0.1960749524902817    -0.10905348028425255
    47   2      6.1530226393352176      1.9969913909276145       2.048139952466272
    48   3      6.0742052643657445      2.2509243321851935     0.02543010662276135
    49   3      3.9892575156711092      2.2137679286236134       1.878547935277362
    50   3      5.8855497105353649    0.055014047567435366      1.8811612215115421
    51   4      4.4084681676798771    -0.28987928028008142      3.9181462267815075
    52   1      6.0995423154999973      1.9816272678011801      6.0173217457903014
    53   3      5.8413588620569241       1.911035481378659      3.9869990254045358
    54   3      4.0415719265678005      2.0499026419153377       6.239433922133788
    55   3      6.0797010152014321   -0.019523919985253952      6.2870096213470141
    56   4      4.2114172528132041     0.10869673124889467      7.6492465655434456
    57   2      6.1945060522515236      2.0183506906503013      10.109344353284492
    58   3      6.1299860039190568      2.1917543431289763      8.1823355937833302
    59   3      3.9926978588766264      2.0376864755866038      10.109146710726378
    60   3      6.0569488083974514    0.017703574943035472      10.131485364457054
    61   4      4.2465393446352611      3.7750705689009783  -0.0026645034596606667
    62   1      6.0396745356991968      6.0174393124792624      2.0332158275992267
    63   3      6.0876427986266268      6.0846702489279796    -0.07478762283791511
    64   3      3.9744127072502695      6.2151909685167199      2.0026184096681305
    65   3      6.1262962512515706      4.0158001228540465      2.1870046686141502
    66   4      4.0234900809824081      3.5995669228492657      4.2280674924866739
    67   2      6.0824802890147716      5.9254546860539117      6.1134509367951146
    68   3      6.0412597092265417      6.3672468395198027      4.1038235570984414
    69   3      4.0855163987455132      6.3007348184294596      6.0591534560401925
    70   3      5.9846071595404862      4.0534140481427423      5.9495800903259095
    71   4      3.9348849468777587      3.7647139356798758      7.7509109805912173
    72   1      6.0862604433600955      6.0378979638549328      10.076716171316848
    73   3      5.9999585079151574      6.0354415724652259      8.0474635921470927
    74   3      3.9908352918447765      6.2463019774568744      10.166624011242597
    75   3      6.0310347316128716      4.0041372879273647       10.43563352313018
    76   4      4.3298065385941982      7.9780804691911342     0.23805529960388194
    77   1      6.0411531289146838      10.102043460491663      2.0319408035891273
    78   3      5.9131739754441321      10.364650783230269   -0.080121278658015951
    79   3      3.9502526036094223      10.193639874045749      1.9650725726881371
    80   3      6.0498645984509238      8.1118835922241086      1.7728215886841943
    81   4       4.114910626868463      7.7274180439151197      4.0350632720028594
    82   2      6.0593634837345531      10.120459147186599      5.9527292121126099
    83   3      6.0204461025069644      9.9818366569891239      4.0980114386769451
    84   3       3.987546860432297      10.099796020543112      6.2815151475067079
    85   3      6.0584799808959815      8.1818142780101049      6.3493730210679376
    86   4      4.2009014133303983      7.7834767932205642      8.0004075144013296
    87   2      6.1448675839101403      9.9788850088818357      10.191807580776217
    88   3      5.9850090209454949      10.445909793179345       8.221133336798168
    89   3      3.9656901035875949      10.142192544520624      10.165226342173318
    90   3      6.0999610981784862      8.1320091023596923      9.9890439052740163
    91   4      8.3388484248118839    -0.25937077372224854     0.24548771478251091
    92   1      10.128896160293664      1.9822387051963932      2.0281494905047213
    93   3      10.054060653253737      2.3491332659452504   -0.062780180332556876
    94   3      8.0676653149799691       2.040879129914106      2.0671747907792328
    95   3       10.16007551650072   -0.010514639863127914      1.7239121051648887
    96   4      7.9260469952454962    -0.41023219608010925       4.051123913058988
    97   2      10.045987246403319      1.9494492642847732      5.9675320328245789
    98   3      10.314113442300325      1.9809080044728544      4.0695622237272913
    99   3      8.1269740088004205      2.1632696093270973      6.0725721531815671
   100   3      10.089768890058728    0.031871418294142036      6.3186691483971611
   101   4      7.8662671046387604    -0.18578755351251999      7.7638529054464733
   102   1      10.107698719929887      2.0318119233977363      10.064651143844161
   103   3      10.012379561567924      2.3945915049455286      8.0638282474840679
   104   3      8.0753115479236666      2.1467908787582957      10.284156882553624
   105   3      10.075384836781495   -0.019066580874463303      10.042829755477301
   106   4      8.0956052588650458      3.7047655944274065    -0.10709842020300979
   107   2      10.259486107686095      6.0535767156771252       2.049819431367546
   108   3      10.093087482998756      6.0587424739735551   -0.042679641463228675
   109   3      8.1239955079245476      6.2243964652151389      2.0896904705917412
   110   3      10.019825430238093      4.1126621342346583      2.2459669850491637
   111   4      8.0458624679135031      4.0614296990352257      3.6912865623766735
   112   1      10.082618714886113      6.0462112988785721      6.0239357414542178
   113   3      10.117688772790236      6.3270232983964787      3.9833693181248897
   114   3      8.0221693679588952      6.2072800638276062      6.0234853414278895
   115   3      10.324714400481025      4.0222117724973687      5.9033764503591541
   116   4      8.1352065058272718      3.7825699942359967      7.9295926651651305
   117   2      10.131873947276759      6.1011231746660819      9.9673021548125575
   118   3      10.030327479037053      5.8438236498116094      8.0984459597704443
   119   3      8.1419136810495321      6.0078861523312126      10.377697113915607
   120   3      10.124494972203291      4.0943414068738235      10.451946279351505
   121   4      7.8735478293910219      7.8937496555722744     0.33169455415400395
   122   2      9.9765446918296785      10.196190693771875      2.0200078663812508
   123   3      10.393614803105308      10.215465028112057    0.052883575906513471
   124   3      8.1141866214954756      10.097303967225571      1.9470942939808349
   125   3      10.195761208086164      8.1275803627947152      1.8110394437518833
   126   4      7.9635704759702381      7.7949068056393278      3.9157577975116329
   127   1       10.00591985356866      10.147423408956476      6.0096304592208787
   128   3       10.22086893360868      9.9705629406866265      3.9705953882976162
   129   3       7.980906535952295      10.182200867462443      6.2886789289079168
   130   3       10.10712561093888      8.1090283544706256      6.2395233234533878
   131   4      8.2430064393557618      8.0179553457249515      7.7143818678867708
   132   1      10.093027454837285      10.067181632452662      10.152419595722339
   133   3      10.166234355006035      10.287579359655796      8.0968888934197647
   134   3      8.0272368133942642      10.352376930625136       10.13837246974483
   135   3      10.089829326478059      8.0483434232204072      10.021769547792813
   136   4   0.0079419035541053659     -0.1270094240242855      11.876517826775983
   137   2      2.0738017471387575      2.1707238334103112      14.160735802278781
   138   3      2.1196023307087302      1.9063488427001611      12.211467458591624
   139   3   -0.031994102605819676      1.9590939564574672      14.149087215406768
   140   3      2.0613317897781851   -0.034940439795781562      14.479957206975531
   141   4     0.32500266024695368    0.063423830231281467      16.174856102625387
   142   1      2.0827834925351825      1.9928026387442401      18.207329853250393
   143   3      1.7807935377002708      2.0837595386630947      16.185133043282306
   144   3   -0.085828321231637278      2.1212145093518644        18.3997994245005
   145   3      1.8301968471055559   -0.040356194804361381      18.120255974218679
   146   4     0.29811742236839062   -0.097313260990720768       20.02476445082662
   147   2      2.1617941258433619      2.0036368246582028      22.181541679874535
   148   3      2.0157979176657368      1.9969567557038366      20.282675258908068
   149   3   -0.023227392002839083      1.9160520941732073      22.330414079218567
   150   3      2.0268091804300354    0.080530673968243136      22.469984190053271
   151   4   -0.095381934502090593      4.0624272648232953      11.839851469441863
   152   1      2.0372788114373543      6.0527746525444126      14.165590774966521
   153   3      2.0402093996671793      6.3497660392794595      12.132078441603007
   154   3     -0.1065978290180695      6.2147913582466625      14.244495948703593
   155   3      1.9358749548198988      4.0346002886049934       14.19079004062205
   156   4     0.36725325321111646      3.9759605063341601      16.292458513238817
   157   2       2.187452400381912      6.1216812695222691       18.23457258871959
   158   3      1.8431931406933297      6.0347085381045282      16.279972835198972
   159   3    -0.10904852827513851      6.0934939582110736       18.28128186631243
   160   3      1.9078546228508027       4.119382049697756      18.302951217012538
   161   4     0.37419342177251336      4.0207432268032521      20.125889263128744
   162   1      2.0556430282690514      6.0392004528165515      22.269110053222104
   163   3      1.8584921861445247      6.1730789642380683      20.217232396432433
   164   3   -0.063494088665381213      6.1074202718515522      22.385342153414921
   165   3      1.8028687358750235      3.9889528022457914      22.252111712176379
   166   4     0.13618464213757212      7.8182927928346748      11.970395814979343
   167   2      2.0344256514399168      10.023390832165997      14.183225627315277
   168   3      1.8744451180296997      10.112730774527243      12.242845782735515
   169   3   -0.069093038145374791      10.235082027259425      14.373939925378869
   170   3      1.9221133144356342      8.1566486453423561      14.398242189252301
   171   4     0.24913229739160364      7.8541760662365627      16.177237185944541
   172   1      1.9916534614051449      10.098945091062832      18.242459585182786
   173   3      1.9829224525089035      10.410968652369744      16.184444147346881
   174   3   -0.084408835351641773      10.267895178350109      18.141301499501189
   175   3      1.7984030305026781      8.0594396013890179      18.194395170065434
   176   4      0.3368314648694784      8.0238017228555929      20.215819798826246
   177   2      2.0574111579437502      10.108278104913563      22.271288854416252
   178   3      1.7497970696289595      10.010108553417723      20.289931107556335
   179   3    0.015641352225788881      10.266326841347214      22.394465355162069
   180   3      1.8963781590575826      8.1485512427623057      22.357870266782822
   181   4      4.3524806516328223    0.088484517618190719      12.229831669270677
   182   1      6.1223376415385289      2.0125981198257739      14.171047386813699
   183   3      5.7973232657677558      1.9184657360895756      12.144969104838701
   184   3        3.97771462305922      1.9544614570895635      14.369923807429664
   185   3      5.8906476781749166   -0.044511971514274246      14.323041842410218
   186   4      4.1525584144324004    0.072402202173866795      15.978693304786681
   187   2      6.1089930807661155       1.837343013233506      18.231430604227079
   188   3      6.1400560111565969      2.2571343948746945      16.239252248575216
   189   3      4.1170686832820813      2.1151773517852992      18.157880492690566
   190   3      6.1834391138341713   -0.022554166549875035      18.105614303009553
   191   4      4.2523299048394119    -0.37848207763884972      20.389030401291173
   192   1      6.1215023932465868      1.9520936333221042      22.249909705328399
   193   3      6.0462371421391028      2.0512886478521843      20.203377325933587
   194   3      4.0339037474820403         2.1675211519499      22.426721438642971
   195   3      5.8708190131119498   -0.047853766619996428      22.355324085984009
   196   4      4.3703042484686181      3.9036832394963592      12.089762236103992
   197   2      6.1030200800657299      5.9584525082072375      14.189232562148186
   198   3      6.0220514015308808      6.3107215097437619      12.207124289203467
   199   3      4.0840363780851252      6.2940668992339921      14.173250952417035
   200   3      5.9741249903491713       4.061299569898595      14.002253781958318
   201   4      4.4341878918084596       3.934745713683701      16.395344287935764
   202   1      6.1191962433748337      6.1039087261175355      18.226499536278997
   203   3      5.9832796839945095      5.9668580038075163      16.178089762224541
   204   3      4.0493198351900697      6.1573244919682351      18.297512588488416
   205   3       5.964340681681831      4.0794829183805215      18.349126134459361
   206   4      4.3418333963085356      3.8142133484214886      20.004436673017729
   207   2      5.9731069260774543      5.9697346641911526       22.28091798326048
   208   3      6.0901411721767236      6.4485721423677234      20.302076116577012
   209   3      4.0741422939425345       6.172387414519112      22.182282831543731
   210   3      6.0882109933837638      4.1052128863953889      22.123509123150068
   211   4      4.1095206225986489      7.7465433410003746      12.183753243858416
   212   1       6.065583757719792      10.123210963323013      14.145129033373111
   213   3      5.8795305321000892      10.085096039239396      12.106617343813852
   214   3      3.9475711640801543      10.249204043727405      14.257968589956725
   215   3       6.065014698845939      8.1220052687070368      14.507211913819017
   216   4      4.2835993784180779      7.8825769903227796      15.992138758696791
   217   2       5.874733962486224      10.093566319099791       18.24633711773593
   218   3      5.9989725460008776       10.46750599743496      16.256048096035737
   219   3      4.0089360363025035      10.233705566288728      18.229545769654642
   220   3      6.1240239974645609      8.1973549401769095      17.995929791325128
   221   4      4.1883943584133521      7.9420328308519572      20.443599209413268
   222   2      6.2128355938811746      10.128795699291723      22.340630162461601
   223   3      6.1015826843972958      9.9168961552843164      20.220353753146544
   224   3      4.0007555730948994      10.174502333112748      22.071395288224476
   225   3      5.9581786554800207      8.1776041140532634      22.390812395887671
   226   4      8.3416294749084603    -0.24250218304424684      12.062227320739874
   227   2      10.101797060850283      2.0894818836779807      14.082152706554139
   228   3      10.287952311326158      1.8195622033008911      12.178178586600104
   229   3      8.1582077223017642      1.9880043812946051      14.269808613976494
   230   3      10.157657925214684     0.03539592679907505      14.420021275186047
   231   4      8.3216860111475146   -0.076180766048770027      15.921814194583105
   232   1      10.141173904920811       1.970424653903635       18.22276663447137
   233   3      10.081436365756623      2.2874610300418103      16.204829154459262
   234   3      8.0759721369052375      2.2208903843127219      18.244055666128791
   235   3      10.035354497955982   -0.051891186086835274      18.186098200569173
   236   4      8.1732364754220814    -0.40424161906818146      20.115638251546706
   237   2      10.112049087279694      1.8583407772025253      22.263651924036509
   238   3      10.183935167916804      2.0639623218837242      20.299197316500535
   239   3      8.1554155436042226      2.2209714718587321      22.248392367978301
   240   3      10.116605678679793    0.012588061161366191      22.458929409809315
   241   4      8.1706866856954576      4.0982633167354567      11.863336828356688
   242   1      10.112846268176675      6.0623634821856029      14.220137596099045
   243   3      10.175403937499837      6.3170905631090672       12.19234816147792
   244   3      8.0517485235635693      6.2419026081776945      14.164952461857158
   245   3      10.235134992394705      4.0325950350207336      13.975174345940186
   246   4      8.1512265347369777      3.6715725003546074      16.277237365487778
   247   2      10.041332229111658      6.0115758897063571      18.181129090011975
   248   3      10.220732930788328      6.0924046791678528      16.284975002503312
   249   3      8.1671343942137913      6.2314881644297353      18.348848819075446
   250   3      10.156666637955903      4.1494502336945311      18.423948706365085
   251   4       8.082234754373939      3.6742837867369413      20.167290962265866
   252   2      10.014671692538277      6.0655923741938347      22.282495181547109
   253   3       10.20459308327041       6.368795350543178      20.262464413649319
   254   3       8.102317951503391      6.2649370085387845       22.17128821580058
   255   3      10.109367939089456      4.1781994820019372      22.104231571969137
   256   4       8.143071991219804       7.706529647409222      12.085549347485536
   257   2      9.9757858775149142      10.153528622871468      14.094411931012655
   258   3      10.141516260059193      9.9845233325701379      12.216185828962924
   259   3      8.1133824062058562      10.123396818094498      14.346043116878858
   260   3      10.207210438301933      8.2032212867543457      14.436060091234651
   261   4      7.9327805962420035      8.0301746477958122      15.933079882674575
   262   2      10.008350384542217      10.118876292020069      18.209425421079285
   263   3      10.329255728720797      10.284514811265133      16.274240330956864
   264   3      8.1389590222794155      10.150396655683016      18.173481338874524
   265   3      10.303784284661203      8.1896959849304434      18.186345920293316
   266   4      7.9178150522614255      7.9238863910433928       20.16797772573792
   267   1      10.057435308423361      10.122830543597463      22.273356936931471
   268   3      10.339116759871024      10.097482171057067       20.19624776332558
   269   3      8.0610047647038758       10.13073965133524      22.304979524007276
   270   3      10.380060774437244      8.1030105747216812      22.343300394293536
   271   4    -0.13988458906116283      11.870335371053667    -0.14197467140691863
   272   2      1.9709758776095219       14.10731799306995      1.8931275499358904
   273   3      2.1010760994580862      14.238804464812985   0.0047729791739881313
   274   3    0.054664321461497661       14.47670788973069      1.9930435172840058
   275   3      1.9177726796196717      12.199824878024328      2.1292827509995331
   276   4    -0.36924488017140422       12.07251900075955      4.1718665743018262
   277   2      2.0381027969824692      14.075470508311334      5.9959648736383055
   278   3      2.0077191246416679      14.380279830971118       4.075606041160043
   279   3    0.066112463116335521      14.217942538443621      6.1869101852198272
   280   3      2.0873812671553353      12.176482180855739      6.0936234584080324
   281   4    -0.20720278818433152      12.078452272520929      7.7296729560169934
   282   1      2.0062534149335134      14.101444600682992      10.091866775781442
   283   3       2.013523027347615      14.336436133459994      8.0716097221034424
   284   3   -0.073639268610844355      14.201316814365866      10.365988258085382
   285   3      1.9755759955744687       12.09542343754098      10.375014440900404
   286   4    -0.12983429283364512      16.028706769380122    -0.18591886202903724
   287   1      2.0121615571506277      18.228366982777288      1.9938951164155843
   288   3      2.2239629235366958      18.320230701485539   -0.040889875790923132
   289   3    -0.02527651277097168      18.191257026652568      2.2552149374106882
   290   3      2.2638605822091202      16.188604362647848      1.9773648465698943
   291   4    -0.10608258933354413      16.165951846008021      3.7569131549104648
   292   2      1.9458302099761737      18.210908572404481      5.9592218915490553
   293   3      2.1096506363237277       18.15610702224928      4.1129408263308704
   294   3    0.022447690315960615      18.365065046391393      6.1189200348761705
   295   3      1.9648184431757356      16.291543013164702      6.2550243332733473
   296   4    0.067492687376401336      15.899156470636385      7.9062290048127872
   297   2      2.0808069766758099      18.178556059120361      10.070376583463357
   298   3      1.9495229372853584      18.408040118741059        8.14687304428044
   299   3   -0.021982205100211732        18.3902499415113       10.32553577623445
   300   3      1.8591407472251265      16.257323633745557      10.167625320111506
   301   4    -0.20304132864597038       20.53304563559518    -0.21352988808355119
   302   2      2.0755637031190037      22.143856667666181      1.8592236263391821
   303   3      2.0581376930835864       22.17663342649789  -0.0053093661783544972
   304   3    0.099954520356862961      22.302497093797708      2.1413703312640431
   305   3      2.0243742622844767      20.264542413172762      2.2338415373065241
   306   4   -0.029458516915358685      20.197030963502502      3.6736214599148118
   307   2       2.054614948358358      22.314106084544537      5.9695197875912394
   308   3      2.0486582619790581       22.40223597770985       4.081012494695055
   309   3    0.031011384890575214      22.246807000739391      6.1673148663681969
   310   3      2.0797025580923756      20.250397635677562      6.1268779044773014
   311   4     0.19235594325382824       20.33472564312958        7.96203614377976
   312   1      2.0356265011315755      22.280554696766945      10.133535845481378
   313   3      1.8948987293729929      22.063507925747032      8.1108014295570161
   314   3   -0.049226038105806932      22.242239877694328      10.394562846594125
   315   3      2.0367871056796663      20.240326464289662      10.340657922148003
   316   4      4.3354509612121088      12.156616172969713     0.25396028736549803
   317   1      6.0559180127308148      14.240754871193872      1.9417426936975499
   318   3       6.053266213966852      13.853827186648537   -0.087156207228945209
   319   3      3.9966842747170559      14.117676522162375      2.1300948352967564
   320   3      5.9890014580950739      12.133506143850719      2.1652143043783156
   321   4      4.3530740815063469      12.434477768467715      3.8391230319379783
   322   1      6.0345169483012953      14.164765233735588       6.079637550603251
   323   3      6.1737298926299866      14.148968800925276      4.0508168982347295
   324   3      3.9871685368951679      14.327097894133562      6.1825432445587225
   325   3      5.8605659877716931      12.099865347445387      6.0480191720585053
   326   4      4.2187377325462467      12.032077243557787      7.8498926557710913
   327   2      5.9943314719988585      14.140415803363291       10.05161636173194
   328   3      6.0673000296038886      14.124112705680405      8.1554660905822249
   329   3      4.0473877674759082      14.454085012212941      10.163107766022977
   330   3      5.8753921598964061       12.22433310138269      10.388074013089271
   331   4      3.7122043501496136       16.23315300527247   -0.010180153630602453
   332   2       6.106660306324339      18.195981308232135      1.8538950486762749
   333   3      6.0141661603109453      18.344568323901377   -0.016438841043586439
   334   3      4.1232906926432795       18.30441188172011      2.1926283228009931
   335   3      6.0220217387146215      16.250114978417677      2.1312224633395416
   336   4      3.9295418749430278      16.201557472369931      3.6559470675718204
   337   2      5.9190607228781449      18.232705921374354       6.125101373632277
   338   3      6.1478400466374072      18.173816752601809      4.1616591793069357
   339   3      4.0256523879925892      18.206807818344753      6.2324167420104661
   340   3      6.2793727479466606      16.253342530333835        6.16903822541303
   341   4      3.8333684769109238      15.869612074011121      8.0212024933528276
   342   1      6.0548877135569956       18.21092154256544       10.12932898256374
   343   3      6.3307066906390626      18.249605987180558       8.092520907419873
   344   3      4.0050514117287142      18.224734079335523       10.16903315215059
   345   3      6.3001222942873021      16.163298653582679      10.081460346092642
   346   4      4.1945153848469481      20.082861368782446    -0.24876048893338848
   347   1      6.1104879151297986       22.19288436318401       1.988060829689841
   348   3      5.9524174605368048      22.236917682976546   -0.032069435941742448
   349   3      4.0098151474894177      22.236340120474935       2.150793972977548
   350   3      6.0741770338648102      20.182832091400279      2.2712706300132712
   351   4      4.1440729722687033       20.19896453816046      3.6908297314457355
   352   1      6.0626817905046773      22.213737481338633      6.0479681184138396
   353   3      6.0888590436046544      22.466864623188705      4.0391763626362938
   354   3      4.0061454201684636      22.278609381746346      6.2843196932814731
   355   3      6.1566209221745192      20.187319839828564      6.1239303640911844
   356   4      3.8132404206679049      20.530177705251042      8.0225937461312196
   357   2      5.9639916249071403      22.211001723100907      10.097364641833801
   358   3      6.2816799335798059      22.186721357226212      8.1903225130553778
   359   3      4.0782635097581315      22.197687418371892      10.018521190527323