(written by ASE)

1080 atoms
4 atom types

0.0      24.299999999999997  xlo xhi
0.0      24.299999999999997  ylo yhi
0.0      24.299999999999997  zlo zhi

Atoms # atomic

     1   4    0.091214389984472691   -0.092071788064839455    -0.30097167202416031
     2   2      2.0265904952350722      1.8858286231932588      2.0241658147984753
     3   3      1.9138913158647497      2.2410752873787474    0.073629414680142127
     4   3    0.048147413604824399      2.0920100338502738      2.2170018863113254
     5   3      2.0518660563809838    0.009526169384613271      1.9956345755775384
     6   4   -0.025233126628307997    -0.35616185108581816      3.9487854810059719
     7   1      2.0437836950127988      1.9574928707288228      6.0355601944757025
     8   3      2.1216241807051879      2.1489600368650557      3.9929128725925089
     9   3   -0.022169249504158099      2.1977460239343212      6.0403439402005841
    10   3      2.0523996167022598   -0.060220364534941347      6.2852774297797973
    11   4     0.54682797771621483    0.012331502710528269      8.1162002217462774
    12   1      2.0289568465364014      2.0411238450719806      10.120888216121299
    13   3      1.8744949709374761       2.152478118820047       8.111356800539232
    14   3   -0.054432063048887203      2.0907770723681058      10.380219179380511
    15   3      1.9261269615532954   -0.010202550720337001      10.160720304027032
    16   4     0.16059797614290677      4.0598974188461554    -0.28057814748897614
    17   2      2.0400998308362457      6.0134071810891649      1.9364804523855252
    18   3       1.913697163799992      6.0595883920624809    0.062051499222220113
    19   3   -0.024112066850771482      6.2482706051361783      2.2026552728034394
    20   3      1.9191786361735821      4.1386127937615056       2.158522822033575
    21   4      0.1416636946676309      3.7014774829875439      4.0253388214144383
    22   2       2.101484982807952      6.0284006621799184      6.0279323592276075
    23   3      1.9313682645093901      6.2972592592986922      4.1275059550283872
    24   3   0.0080028255661073223      6.2549554670175329      6.0906588310996996
    25   3       1.986361455081481      4.1547646951469295      6.0800030928520012
    26   4     0.22025126754632052      3.7041075360271116      7.9275222640330929
    27   2      2.0475114043519476      5.9830373645894834      10.108844114748386
    28   3      1.9181689513743472      6.1515474159301915       8.127394930986517
    29   3    0.033118579454848307      6.0992084167659542      10.342037019055377
    30   3      1.9957538436598916      4.0991062217707412      10.289680454540656
    31   4    0.066278607742340401       8.063806914648147    -0.39856364807859362
    32   2      2.0516714556595899      10.101840370446274      1.9521126358956544
    33   3      2.0045750647718474      10.252951856006307    0.023425774967195875
    34   3   -0.034776375095643602      10.194915237253893       2.038365913890722
    35   3      1.9636797454091195       8.183330859899792       2.049755491287347
    36   4   -0.063186177422579939      7.8645603275813629       4.009419590830567
    37   2      2.0202985223204801      10.056337823356087       5.972028497638159
    38   3      1.9541843004149329       10.13373845324571      4.0917909712484457
    39   3    0.064112060812292676      10.275698180515779      6.1868595448559738
    40   3      1.9280708105876265      8.1790566097837818      6.2540478343842256
    41   4    -0.13760078718691163      7.9267481882484603      7.8901150841804517
    42   2      2.0546652380434671      10.110103058576476      10.042630434006869
    43   3      1.9564235541897146      10.320358020505493      8.1757041645047472
    44   3   -0.063597969973461524      10.325869638328927      10.253831710821405
    45   3      1.8576931382463158      8.2159040264442158      10.115989568531164
    46   4      4.1327485009279927    -0.19058367823193398    -0.31357104340672581
    47   2      6.1506693860842203      1.9203747315264801      2.0103641370516621
    48   3      6.0959879589153507      2.3132620234489436    0.044683746716971937
    49   3      3.9974678661854353       2.249123711489327      1.9057909138585742
    50   3      5.9200584093813928     0.01763695503387238      1.8613863122056853
    51   4      4.3409310337783102    -0.13142915304023692      4.2127060696629091
    52   1      6.0871584633806473      2.0140153261635563      6.0332116227182011
    53   3      5.8268637347241192      1.9011814050277478      3.9801425874711445
    54   3      4.0526085267957743       2.070697025895702      6.2284018116498858
    55   3      6.0187742198343193  -0.0090432433215874072      6.2118084554454738
    56   4       4.178628046407348    0.066200603839023528      7.6733639210703091
    57   2      6.1474155278998204      1.9163367092973818      10.170175072188512
    58   3      6.1378636296096669      2.2425432426679346      8.1668587549419893
    59   3      4.0894983682180506      2.0713080040269651      10.069801356611295
    60   3      6.1718549135149896   -0.024539155518958796      10.083559917792691
    61   4      4.2120767095813756      3.7874307022202012   0.0097188580691732682
    62   1      6.0272255207602283      5.9946678364471264      2.0436478864877583
    63   3      6.0648761425240298       6.082642028312832   -0.054089630440908913
    64   3      3.9466898885361714      6.1786986450659738      2.1140395639512226
    65   3      6.1055961249238386      4.0010005052937512      2.2708209858632826
    66   4      4.1595003563380182      3.6408715933391278       4.097932097150295
    67   2      6.1335914105094069      5.9585510696675188      6.1192581796455041
    68   3       6.044025044442761      6.4214664270029349       4.134065440639402
    69   3      4.0078862386221763      6.2586004091032947      6.0904046576402351
    70   3      6.0258279035207707      4.1028330520436027      5.8817311702718831
    71   4      4.0245496795260332      3.5356884673611941      8.0223476763960928
    72   1      6.0813879397864072      6.0507019253308636      10.084433493743832
    73   3      5.9636180391285709      6.0527087495320231      8.0442896222106874
    74   3      3.9787449824773411      6.2726864639308966      10.153592374722313
    75   3      6.0613831092572914      4.0357724681372105      10.404765663195557
    76   4      4.3512254521625611      8.0275080766617695     0.11102246079754095
    77   1      6.0509190363348022      10.121672982330708      1.9972069383980668
    78   3      5.8583607214999294      10.319313154522362    -0.08237316743030744
    79   3      3.9423500274190419      10.220067441338038      2.0786481744342602
    80   3      5.9406658738267897      8.1132554167389959      1.8349497406524506
    81   4      4.3163712615361929      7.9653826174392552      3.7738140805998341
    82   2      6.0577586247794803      10.125537967503776      5.9642752205843008
    83   3      6.0356173518956329       9.953441626307054      4.0970778266584764
    84   3      3.9966963549713679      10.171946347990932      6.2570732607710617
    85   3      6.0065369818548211       8.183078938712173      6.3705032499977481
    86   4      4.3061333040992862      7.8783015862830288      8.1369784981107358
    87   2      6.1585877307600718      10.031212510626789      10.216040469344488
    88   3      6.0002588462113744      10.447048010887219      8.2128595817507843
    89   3      3.9689999636287996      10.222576912535956      10.179343397661343
    90   3      6.0565751478533114      8.1707026408915073      9.9534427130660923
    91   4      8.3917780438458447    -0.25744618687660392    0.068791698302205051
    92   1      10.122878560300743      1.9623087072667063      2.0269374229234534
    93   3      10.046897755424201      2.3317752820041679   -0.057043913751754736
    94   3      8.0581992313463378      2.0631711741682301      2.0923655076704493
    95   3       10.16420178291407   -0.041954105016654093       1.675595311113224
    96   4      8.0934896916304364    -0.42859981412587733      4.2167366642049933
    97   2      10.035863845316285      1.9702747657162272      5.9791985133844818
    98   3      10.316782146334369      1.9890916265030487      4.0640167298748846
    99   3      8.1165420520525657      2.1478227334842392      6.0446237495226827
   100   3      10.115607948496903     0.04411356768220117      6.2431184213772184
   101   4        7.90036460563097    -0.22221414702826781      7.6897136450481636
   102   1      10.099989567702213      2.0275055737551528      10.065887865767833
   103   3      10.013255554793723      2.3738931740908424        8.05832625850352
   104   3      8.0779729417268484      2.1949308913343963      10.229763082601886
   105   3      10.054621635486244   -0.025346690561744583      10.069679014147107
   106   4      8.0901583500281795      3.7278215868091977   -0.091504922108710779
   107   2      10.249529961008767       6.033025965427405      2.0367644903129349
   108   3       10.09262320028115      6.0597101686520363   -0.040870979902455515
   109   3      8.1152938571393776      6.2487362192255311      2.0826130955549651
   110   3       10.02454309525112      4.1041736240352833       2.230635424818169
   111   4      8.0115257430910152      3.9749528335536364      3.7156297790636117
   112   1      10.087396318042625      6.0422679096417369      6.0368705958036282
   113   3      10.117852883925892      6.3234890843847129      3.9837109388090659
   114   3      8.0326355196838826      6.2408880007987095      6.0410152261786871
   115   3      10.344312400898211        4.03360654806432      5.8990711083839127
   116   4      8.0554848067209903       3.705913102007119      8.0528926850859683
   117   2      10.125203045428515      6.0937641235688647      9.9652665748097249
   118   3      10.049758572937069      5.8646373418427862      8.0977449543952762
   119   3       8.141991801183444      6.0383287161003194      10.363518357572538
   120   3      10.129184812116675      4.0966715156709794      10.436514595053234
   121   4      7.8643601636507237      7.8692258514816249     0.33549298584683629
   122   2      9.9743718779562816      10.186239721624123      2.0079339833291345
   123   3      10.400524117578174      10.200678265679038    0.048743592226141198
   124   3      8.1114242211629133      10.054054602323065      1.9269267503001306
   125   3      10.206982049146195      8.1227509925477008      1.8228006145837448
   126   4      8.0477430899438804       7.790962588210145      3.9321454673341276
   127   1      10.009020804771962      10.157418051713902       5.999228644827121
   128   3      10.208186533634978      9.9737066445466382      3.9690302239900683
   129   3      7.9902192227638773      10.141232658944196      6.3041896322121813
   130   3      10.121346191802644      8.1144191599013009      6.2386054940075466
   131   4      8.2824266226236283      8.0704539980401648       7.745653360760044
   132   1      10.117216026356129      10.071573127253943      10.138759757141385
   133   3      10.178945272313351      10.285482950134172      8.0934532005325952
   134   3      8.0518727815635067      10.348904509761894      10.125680565230541
   135   3      10.121048511078634      8.0522769514764079      10.021335753243926
   136   4     0.19817923982060484   0.0090620996436065297      11.776505713791888
   137   2      2.1028924489991581      2.1522104966873483      14.136796824459747
   138   3      2.1291538527582308      1.8766244425343148      12.233911524535417
   139   3   -0.055252343598284848      1.9601412006898993       14.13103534532652
   140   3      2.0444653092155423   -0.020492660533172401      14.443222427550348
   141   4     0.34129972893120508    0.063126045978364964      16.157090247451745
   142   1      2.0426015660018999      2.0011188700300164      18.203393909550826
   143   3      1.7540225252657324      2.0809803162496556      16.188829968559059
   144   3    -0.10172215872961897      2.1714943321936122      18.429552821266739
   145   3         1.7929582689776   -0.028598213361302607      18.170027734202819
   146   4     0.27026714726347906    -0.12353557533327827      20.048127792374171
   147   2      2.1266663854373835      2.0592795998879452      22.192759998597595
   148   3       2.041864135685397        1.99790419843261      20.296098703247818
   149   3   -0.017884114881750658      1.9428568360878256      22.346955696430435
   150   3      2.0387371377440693      0.1009054771024346      22.517014844753039
   151   4   -0.050833763038164788      4.0026309330653929      11.805444416520418
   152   1      2.0398611267412243      6.0514126863257971      14.149934910164687
   153   3      2.0523476847205946      6.3600282555695706      12.112559205027154
   154   3    -0.11485865001724709      6.2136612846068831      14.180783014934198
   155   3      1.9148102074405957      4.0285672215326285      14.194560857168215
   156   4     0.36955416597537194      3.9782677806671605      16.240765882291786
   157   2       2.184573745500761      6.1165229690678213      18.216432848540364
   158   3      1.8408004180824351      6.0602602636991891      16.260308648429604
   159   3    -0.12159830481153995      6.0568187878366189      18.284018090981384
   160   3      1.9096558419806877      4.1250092326179084      18.291859303068541
   161   4      0.3363479987665785      4.0563752321819804       20.09108992692763
   162   1      2.0331284696124929      6.0713360165093366      22.257867340595997
   163   3      1.8451200051672516      6.1589986731983597      20.197210523388005
   164   3   -0.077997777890758929      6.1128045825690549      22.387671884770175
   165   3      1.8063451858395574      4.0145206398472624      22.265322505362992
   166   4     0.15386811955415822      7.8005009111960497      12.066173155295257
   167   2       2.114842480443941      10.073103228762134      14.212750928633108
   168   3      1.8451346213988795      10.184996631655229      12.228749884865893
   169   3    -0.11919436710273824       10.24387158777925      14.299613898673703
   170   3      1.8936659266435663      8.1772672252726579      14.312891199301975
   171   4     0.30783123682486419      7.9496275405757881      16.157747225615385
   172   1      1.9990850830352818      10.089840980252927      18.201065354298503
   173   3      1.8582330956813458       10.26446953187555      16.162963820664061
   174   3    -0.11619829900924436      10.269515979805984      18.169637093858725
   175   3      1.7484658918460214       8.052766968666587      18.193797379947327
   176   4     0.31718134556160243      8.0170256622346354      20.194337129688943
   177   2       2.076045361892231      10.153211877856998      22.189892938456541
   178   3      1.7059656509661614      10.029466507603516      20.270700466492865
   179   3   -0.012038241076965968      10.142015383320899      22.495232224452209
   180   3      1.8742030235838982      8.1535206924563326      22.317678356143741
   181   4      3.8316113154834643    0.030712455774013051      11.695352135962175
   182   1      6.0919041728005716      1.9551765277094639      14.133476336471775
   183   3      5.8775756737105658      1.9385372822521398      12.120236996370684
   184   3      3.9933685804508641      2.0030538340991089      14.441106802642979
   185   3      5.9393796157778507   -0.083959397114397108      14.425090387206863
   186   4       4.106893659476011     0.05891614471002065       15.93924247381851
   187   2      6.0681394024086162      1.8668420290372323      18.244369123813833
   188   3      6.1404358315844494      2.2631441593572514      16.257198683867014
   189   3      4.0880453396809218      2.1292751906605427      18.163578084496692
   190   3      6.0724474803075141   -0.028873139100164504      18.151409716930893
   191   4      4.0281232143091268    -0.29002870444304324      20.312769938299891
   192   1      6.1098569141450607      1.9631898677922428      22.257096934074987
   193   3      6.0117170616327318      2.0712748039464595      20.211990915605025
   194   3      4.0164756845897545       2.150958571612839      22.469861957819237
   195   3      5.9139539003600596   -0.039371342452347316      22.407587484139889
   196   4      4.3096760866608754      3.8238747426145294      11.934492445503757
   197   2      6.0902966219225698      5.9347826587422121      14.172098007702191
   198   3      6.0327147940304497      6.3524372616543641      12.206685337757818
   199   3      4.0831729479418852      6.3141329193484435      14.170057660815775
   200   3      5.9604887449351285      4.0540410366507205      14.032162937160928
   201   4      4.3963255721534544      3.8812793570162367      16.301681853669628
   202   1      6.1044455154370683      6.0891778954598488      18.213188500050364
   203   3      5.9939410441510059      5.9786053267645052      16.168417503432881
   204   3      4.0463130342407228      6.1828316266719918      18.288442213805322
   205   3      5.9713849013936331      4.0619526558571186      18.376134538380299
   206   4      4.2988111970822303      3.8407011882663946      19.996026028378814
   207   2      5.9500589313193997      5.9719687692043015      22.279005484795377
   208   3      6.0871452764970782      6.4511106829148135      20.308905590780387
   209   3      4.0581724118879361      6.1538903559522611      22.191632453766605
   210   3      6.0792184825902726      4.1082332390545018      22.115699033577204
   211   4      4.1050448821505405      7.7561460564515174      12.182549528716484
   212   1      6.0838125524792135      10.137947081136787      14.158110209973575
   213   3      5.9398170352941886      10.082837121713327      12.123694506815406
   214   3      3.9878987774283696      10.196629238510575      14.236047077687891
   215   3      6.0785682547529749      8.1409072657664723      14.525040514684413
   216   4      4.2880720360095239      7.8908570922998091       15.97057982005677
   217   2      5.8498733398079175      10.097892731659295      18.212731843049021
   218   3      6.0544418929486836      10.514598588616924      16.293929239275549
   219   3      4.0037683255481058      10.057557202983199      18.310633625887924
   220   3      6.2307872316236601      8.1848398112718623      18.013065531076709
   221   4      4.1896816446486049      7.9862184051056531      20.400945147557902
   222   2      6.2317514467166513      10.120254136618694       22.31752642377938
   223   3      6.1039051814495249      9.7950496547100805      20.262687959905573
   224   3      3.9907958247125097      10.138919721965753      22.069226479800552
   225   3      5.9371879075235112      8.1486250093204049       22.46216092798851
   226   4       8.365769561503166    -0.22951054389202785      12.041995790220495
   227   2      10.055026217379694      2.0859448320367333      14.085429620408384
   228   3      10.278431987884991      1.8031131360394763      12.180318449886505
   229   3      8.1374955601280785      2.0461633390034231      14.219721252548513
   230   3      10.130234472498872    0.022262613443115704      14.427142181674416
   231   4      8.4384689656797196    -0.12177663923935948      16.074501780719078
   232   1       10.14283252965271       1.961041964532827      18.202325107781785
   233   3       10.05828539309196      2.2591950144554493      16.190774187681697
   234   3      8.0521266493165005      2.1979309769126072      18.271246998723203
   235   3      9.9103255445093215   -0.067157464836554201      18.112884558583367
   236   4      8.4305330153518288    -0.17717371337086599      20.066564649879965
   237   2      10.115284098289607      1.8996024234313118      22.264764446905058
   238   3      10.168291832133708      2.0058351525024616       20.28789111269305
   239   3      8.1526717996538522      2.2339277491724601      22.249384862655578
   240   3      10.087484554597077    0.025744012350373369      22.449648280006702
   241   4      8.0769990261520661      4.0539797690215815      11.810820675831234
   242   1      10.109074861656731      6.0516871919994557      14.216896912512299
   243   3      10.197096041402602      6.3033118261586232      12.194679709698834
   244   3      8.0472228875066758      6.2385839344884921      14.163737879423602
   245   3       10.28226510258469      4.0215742815671325      14.005634216599985
   246   4      8.1032119469136603      3.6639958576206895      16.251283074428954
   247   2      10.041325199265545      5.9882827479321117      18.176898658551817
   248   3      10.221010370295481      6.0795454540141325      16.284071477159028
   249   3      8.1648013025898294      6.1615073667704365      18.350758604379759
   250   3      10.183030840315478      4.1263575952687752      18.426887087347737
   251   4      8.0121819142143025      3.7131433752827254      20.143768490529975
   252   2      9.9951920428675596       6.061941371523571      22.258721549435563
   253   3      10.234353355061621      6.3231871059894935      20.265411104446848
   254   3      8.0973645972248018      6.2350810713089784      22.201987492788554
   255   3      10.137490764094926      4.1582630955231101      22.113328498185542
   256   4      8.1505512289653623      7.6934716609690277      12.110589276034398
   257   2      9.9967398753500767      10.146453407385533      14.086795043988534
   258   3      10.112439382806478      10.016265511814453      12.206353315910636
   259   3      8.1301015453321046      10.159704767466618       14.36589948892612
   260   3      10.211128624490216      8.2025598423175321      14.425028493433953
   261   4      7.9146004781856716      7.9954162059192839      15.946850958142608
   262   2      10.006639060707075      10.112196941054902      18.222242340481031
   263   3      10.319325584085695      10.294301844407823      16.286798615622637
   264   3      8.1408245421624983      10.239497293121369       18.24028450417671
   265   3      10.247880212424654      8.1738092229876482       18.20234004568189
   266   4      7.8688966863359893      7.9640714791502543      20.080950050296341
   267   1      10.066609806818931      10.105126770369546      22.273402188695869
   268   3      10.348423017483542      10.080200050665757       20.20980747829671
   269   3      8.0727006225524818      10.097988499403419      22.341200076635666
   270   3        10.3855851399251      8.0784114394131432      22.344157666409565
   271   4    -0.12780648471755532       11.89443127169277    -0.23494545571101705
   272   2       1.981035927132458      14.111635779363818      1.8491945766715565
   273   3      2.0812742343620165      14.203495061267551    -0.02123803077826272
   274   3    0.064743738249487828      14.435059760281019      2.0193887117240452
   275   3       1.909075816637106      12.189268842390984      2.1619824241237144
   276   4    -0.36374094873598223      12.079228417084844      4.1228155271007365
   277   2      2.0346730735518426      14.097345580944868      5.9476306325961792
   278   3      2.0503970709072359      14.344117027407119      4.0816169030493317
   279   3    0.087344801812197267      14.312983448144047      6.2214373820041624
   280   3      2.0018885709504297      12.198541046766108      6.1253156734025529
   281   4    -0.19252630676688964      12.058196328251155      7.7461708548895611
   282   2      2.0693231846333466       14.14675402328905      10.042199103895841
   283   3      1.9508306176493757      14.180313817375843      8.1780896398423408
   284   3   -0.047029459904565744      14.214407517304551      10.312590952777997
   285   3      1.9148179590381103      12.207248130000391      10.376331107347252
   286   4     -0.1181144291819992      16.048733804472992    -0.19981227749695885
   287   1      2.0006677001836337      18.195021691366836      1.9854952758208768
   288   3      2.1115130444008101      18.176825233666811   -0.032219990798545144
   289   3    -0.01348289912771717      18.182072968382705      2.2941353807262179
   290   3      2.2640375159465367      16.148890910991632      2.0102953403826556
   291   4    -0.12711635445715969      16.181008510891516      3.7261911459053421
   292   2      1.9310020493616602      18.157837318009278      6.0321659780044081
   293   3      2.2479966215919109      18.136041767853104      4.1333300597036287
   294   3    0.026165973216078102      18.177614346351671      6.0759762289531736
   295   3      2.0926606505571508       16.23781782950493      6.3111597608064631
   296   4    -0.10305984815193743      16.013130474520405      7.8413055324715515
   297   1       2.000197710626018      18.149188980385741      10.058732230184795
   298   3      2.0259818504514056      18.510467935549627      8.0459968215754838
   299   3   -0.066210787158529308      18.313954938094192      10.318752503443529
   300   3      1.9405007250544812      16.130175958703628      10.253639758481171
   301   4    -0.15337999339265423      20.519601646672875    -0.20692188836783529
   302   2      2.0659761881104619      22.164986510906203      1.9592735029349535
   303   3      1.9188193148737478      22.248937969218151    0.078928147623544886
   304   3    0.099528939846972364      22.261453951778051      2.2543010714008669
   305   3      2.0597227168652736      20.260804005849611      2.2706474502478069
   306   4   -0.030228010888614001      20.177127854352708      3.7142908914665096
   307   2      2.1096588942078984      22.214674834931255      6.0497761111533928
   308   3      2.1179944697735746      22.471122003812457      4.0654594660971402
   309   3    0.019838912766157339      22.342771900983394      5.9185270374648722
   310   3       2.018337760306868      20.239508980080668      5.9442388886324631
   311   4     0.35554509296482101       20.24412457040799       8.259093311765108
   312   1      2.0520441862208707      22.259602698106931      10.087798655305917
   313   3      1.8104544028079304      22.137129289895572      8.0427588488705251
   314   3   -0.055500672478044362      22.242511285068499      10.342856211673062
   315   3       2.004601077438696      20.251642071588243       10.22247421909757
   316   4      4.3411594669052809      12.203889801625168     0.13562950259150872
   317   1      6.0512917205781669      14.218043243935174      1.9362420851814561
   318   3      6.0675139085684009      13.811805725746769   -0.095779405448921703
   319   3      3.9997732177350933      14.054337956679857      2.1043406442177917
   320   3      6.0259577014485179       12.12820203332725      2.1700111030709812
   321   4      4.3153688990431922      12.353298827036067      3.7583264211362852
   322   1      6.0364935002215185      14.133195029232063      6.0730168597417604
   323   3      6.1846132794201649      14.172429037265557      4.0442506726978138
   324   3      3.9664038541011881      14.244259233243042      6.2760582526491122
   325   3      5.9465409679084278      12.095389877306246      6.0382209289529118
   326   4      4.2717264505158017      12.093495721846667      7.8878093105126954
   327   2       6.135352825682153      14.200790748401923      10.086453306741381
   328   3      6.0139427318884806      14.034344032436552      8.1975101484418769
   329   3      3.9771262012632609      14.185136057838058      10.240327467940741
   330   3      5.9573615156836768      12.218468045572989      10.412213270985841
   331   4      3.7199811033900354      16.317008407215084    -0.10059724596253297
   332   2      6.0952782266554761      18.144357839238307      1.8470581723425168
   333   3      6.1014581042279925      18.348733204382274   -0.004424607943682983
   334   3      4.1403005242557054      18.304174142689622      2.1651599007737494
   335   3      6.0557208924926575      16.230965997496735      2.0491851340051705
   336   4      3.9311067672891644      16.188610603441642      3.6661182955855525
   337   2      6.0253460475290659      18.321319196172009      6.0839937328784748
   338   3      6.0793835736037316      18.082695957827102      4.1241196548354306
   339   3      4.0715564272645119      18.253695042884928        6.22734905570612
   340   3      6.0935406225706625      16.186693941546192       6.263889060768391
   341   4      4.2014619155477728      16.078987742551661      7.8134226012710979
   342   1      6.1251877039686118      18.205692552689378      10.117420893886219
   343   3      6.1635152120696191      18.230593164002816      8.0789914519006309
   344   3      4.0575413757896337       18.30503852326175      10.152873935827669
   345   3      5.9730150949902576      16.132312460968723      10.095135718494889
   346   4      4.1461686686029608      20.235724355585035    -0.44130719136688507
   347   2      6.0985174949574397      22.165899154274758      1.9840293453430033
   348   3      6.0912312515185389       22.21245627102364   0.0094118093489622898
   349   3      4.0589058066401096      22.256657874651054       2.017034041459929
   350   3       6.099688166198721      20.271561188218705      2.2286297014316254
   351   4      3.9210895234530319      19.981480774329917      3.8370977219554279
   352   1      6.0483097305439726      22.199970123338389      6.0217687727921998
   353   3      6.0340336437402184      22.540568516602811      3.9612977929524726
   354   3      4.0254905701260881      22.333839958382338      6.1476061998788225
   355   3      6.2345290075746096      20.200450793467002      6.0012158341168469
   356   4      3.9571249438029086      19.857395591946002      8.3459046095728269
   357   2      5.9918925916207293      22.160740819205007      10.042730345346206
   358   3      6.2577361221186782      22.195361487008704      8.1591360454791459
   359   3      4.1041452980105673       22.31570443003999      10.120865091259743