(written by ASE)

1080 atoms
4 atom types

0.0      24.299999999999997  xlo xhi
0.0      24.299999999999997  ylo yhi
0.0      24.299999999999997  zlo zhi

Atoms # atomic

     1   4   -0.035934197541110165    -0.26554359683287859    -0.18065032035051562
     2   2      1.9625497412367123      2.0445255001015599      1.9358060152710188
     3   3      2.1108736005589814      2.0110457478676138    0.037180349542278238
     4   3    0.082993106161241406       2.169472264802538      2.0937387010594395
     5   3       2.079343134213496     0.13244784446302943      2.2061034158310533
     6   4    -0.16256430138376382    -0.15360879070146752      3.9435489979828331
     7   2       1.926800085695892      1.9746548287836319      6.0381422479570608
     8   3      2.1434273234094112       2.248093593551248      4.0741550413367271
     9   3    0.035671116770586916      2.0694776470504066       6.057680285019531
    10   3      2.1854268505510901    0.077241736259960087      6.0167293268045423
    11   4    -0.29691384908982754     0.11380573567463832      8.4473070175797034
    12   1      1.9890063549535655      2.0098442373996104      10.086273819022297
    13   3      2.2378628312837456      2.0159171276000274      8.0312470075110713
    14   3  -0.0077648296578385085      1.9902886459965743      10.044848575184327
    15   3      2.2761271850269771   -0.026338087120499818      10.098133745759901
    16   4    -0.27956397471306993      4.1087642082461242   -0.082304385209502007
    17   2      1.9636552098076079      6.0463660324255732      1.9304535040754447
    18   3      2.0964450561729469      6.2539227679860883    0.045298836502628809
    19   3    0.068597943129590541      6.0320409072371195      2.1237059211502118
    20   3      2.1707885057401186      4.0936729157949001      2.0091725584761857
    21   4    -0.32016920377590574      4.0639950806907992      3.8440609291869179
    22   2      1.9015485946070909      6.0826867351934633      5.9490636596512276
    23   3      2.1396052284658129      5.9581220288310126      4.0728134070449133
    24   3    0.040427006686820331      6.1604349504338156      6.1241678919645608
    25   3      2.1055615863870361      4.1144394224345566       6.234762831963784
    26   4    -0.31118834798422501      3.7994012907712054      8.3225255165808374
    27   2      2.0309211076721319       5.998263116565882      9.9613524906482134
    28   3      2.1585494798457887      6.1971903721246235       8.086319323256463
    29   3    0.098410472309844441       6.307381188894067      10.111497952807225
    30   3      2.0276764829148584      4.0980851126644353      10.130855374876674
    31   4     -0.3690151117703418      8.0802555469800001    0.052006372546552534
    32   1       2.018737705947045      10.025521692499821      1.9962252175913524
    33   3      2.0186195235347695        10.2143077697324   -0.057606506541582253
    34   3  -0.0022594028042344158      10.216518134008611      2.1220728251462475
    35   3      2.0261108657193665      8.0075939474734881      2.2806047282679129
    36   4    -0.26716038477250598      8.1164704707081849      3.5909173902587002
    37   1      1.9730207820376011      10.077910689092858      6.0793209213738884
    38   3      2.1400665284898097      10.226336424897575      4.0679066322890938
    39   3   -0.058011064485015647      10.293594343097661      6.0317313662459888
    40   3      2.2670490421528702      8.0188780918477676      6.0383977702387126
    41   4    -0.33218070507879166      7.9401149117361411       8.123139640506416
    42   2      1.9926809162519061      10.024888704687456      10.071986959868596
    43   3      2.0104678390740056      10.097018344460439      8.1525028825965666
    44   3    0.062142239780085748      10.011740787897173      10.207405616813777
    45   3      2.2098541795288735      8.1245727858395966      10.248783548923031
    46   4      3.9797318752273587    -0.31747262686491817   -0.066371237103281383
    47   2      5.9851423495126088      1.9463594923338379       2.027852582274126
    48   3      6.1739394819062738       2.022226932958858    0.049198598392150898
    49   3      4.0840430142678725      2.1022585019674249        2.11805091930509
    50   3      6.1368633010074198    0.076241219278648284      2.0676364741309885
    51   4      3.9623151646066184    -0.24496058325221101      3.9022935071308962
    52   1      6.0362658301837007      1.9826954163223238      6.0565012575110631
    53   3      6.1622549621734581      2.2251344332151186      3.9796377633679749
    54   3      4.0483456762960248      2.2874500590876776      6.0390555897613307
    55   3      6.2895250205905402   -0.046683219841550848      6.1059415698235204
    56   4      3.7185726577118792  -0.0036226839741712812      8.1260922839574405
    57   2      6.0411605719527888      2.0681594749697902      10.097992652063262
    58   3      6.1918645092876581      2.0414079323541099      8.1489005011439115
    59   3      4.1307178204918618      2.1305866688436561      10.223360478952172
    60   3      6.1497801546864705     0.03225430905902222       10.13250402381221
    61   4       4.210461690734264      4.0260825393397761    -0.41894253268877613
    62   2      5.9911327783449853      6.0604908834397442       2.094410471390689
    63   3      6.1092865243174321      6.2891532924889475     0.07094773454816862
    64   3      4.0976913271308346      6.1908269396543698      2.0726010971305167
    65   3      6.1683374385333813      4.1101636687299541      1.8684512450560959
    66   4      3.9988224476467154       3.800393756515033      4.1624300869304527
    67   2      6.0005249486388301      6.0825676551618599      6.1812228713298873
    68   3      6.2730618057006255      6.0292345047616909      4.0411747723095353
    69   3       4.106599416851612      5.9862419085211211      6.0972673638781814
    70   3      6.2742425735287783      4.1098159445720572      6.1099941279230832
    71   4      3.8947465547948381      3.7902259175722466      7.8547226508609294
    72   1       6.039842362135305      5.9877628177459874      10.065461929465547
    73   3      6.1812928623613663      6.1438312196911262       8.063192898281299
    74   3      3.9969773226136973      6.0038115051965493      10.350767369676753
    75   3      6.2647361954625129      3.9839428491339652      10.223808250218934
    76   4      4.0552304709296223      7.8407743089887569     -0.1772404874706251
    77   1      6.0709768437030993      10.082675272561211      2.0377431936475845
    78   3        6.31833294580768      10.124614600448698   -0.042974915305004531
    79   3      4.0615096687916354      10.214619608732708      2.0459146385655771
    80   3      6.3154987533318776      8.0473595757829788      2.1032412315722535
    81   4      3.7203376454952517      8.3328722884413278      3.8992330024189319
    82   1      6.0770980837872042      10.087829006753012      6.0981670799279817
    83   3      6.1658843223024435       10.20924295364412      4.0675729301717887
    84   3      4.0480610013807379      10.185871303667122      6.2292697488744855
    85   3      6.1320667660860035      8.0476036317921995      6.0060064839872593
    86   4       3.953474657953385      8.2787980606004492       7.697748611163159
    87   1      5.9996371240557274      10.058183638662808      10.169629289498273
    88   3      6.1347093817514642      10.154280475443821        8.12455709465487
    89   3      3.9881403740203427      10.355698408482331      10.098281289732958
    90   3      6.0886268596216793      8.0623904827737256      10.257448201678459
    91   4      7.7188205541649237   -0.025718126888175506    -0.10353299009654066
    92   2      10.031779644487072      2.0467932829819402       2.087628540385654
    93   3      10.296900648224312      2.0273468815828832   -0.082422781589618715
    94   3      8.1442687686615969        2.13227065020941      1.9447216137602323
    95   3      10.211563406393514    0.069062102234080436      1.9227191572548195
    96   4      8.0364735569533572     0.16021040314552334      4.4601941301633437
    97   1      10.182488848022251      2.0320432446022645      6.0635497275149612
    98   3      10.188934085496014      2.1235589089836648      3.9374487868856716
    99   3      8.1364050411730151      2.1300677279684948      5.9878131601829674
   100   3      10.068915121989475   -0.016387995966475406      5.7955998036497443
   101   4      7.8127713725670302   -0.041242858562063764      8.0259547005136653
   102   2      10.117866155884942      1.9550144046631073       9.951465713354807
   103   3      10.141841311757863      2.0757790639136142      8.0987951118179993
   104   3      8.1913176769762259      1.9099383957824851       10.13422509360398
   105   3      10.406315936887621     0.05482983103178294      10.153509082816599
   106   4       7.739901350632886      3.9874606860558388    -0.09274347839620424
   107   2      10.069134020569603      6.1038359422216901      2.1398069918812732
   108   3      10.285955556325794      6.1709029623223843   -0.091674499500064177
   109   3      8.1799984478700978       6.063532953702139      1.8637616260420602
   110   3      10.281599641126208      4.0661589734439909      1.8384506435288124
   111   4      7.9241967284918706      3.8318533725392783      4.3175225571218121
   112   2      10.065703087589215      6.0158873243341633      6.2063347420625741
   113   3      10.184041542349698      6.0561937073252619      4.0089677676022957
   114   3      8.1803933752812643      6.1177646994705928      6.0664249197149953
   115   3      10.200089698318322      4.1297576439593708      6.0306828372421943
   116   4      7.9770681428642414      3.7105632321822148      7.8280804191298019
   117   2      10.054758303789143       6.012352993046056      10.232280229990321
   118   3      10.292810634557519      6.1821909619233999      8.0953531442642106
   119   3      8.1699217814970861      6.2309700389744487      10.117521300643512
   120   3      10.074280237929674      4.0554795142981881      10.144350943733782
   121   4      7.8021142129567451      8.0448995770465093     0.17614378464821043
   122   2      10.088565796597528      10.210453346406279      2.1345636975401385
   123   3      10.079973735827231        10.0372256802842   -0.037927550509102105
   124   3      8.1955447064548288      10.142076127019099      2.0548178792955816
   125   3      10.210889082489917      8.0782972970392048      1.9185755213803073
   126   4      7.6835372907904738      8.2551155535335372      4.1581310021260522
   127   2      10.118815059962344      10.009788858185495       6.267332319453252
   128   3      10.273083663423042      10.139713320982793      4.0135678852644237
   129   3       8.201946566442631      10.174361090225036      5.9391642066106254
   130   3      10.253570024537941      8.0964239251529175      5.9498539322982182
   131   4      7.6548039608142036      8.2091342697766496      8.4451222810513116
   132   1      10.107581197380375      10.036602272486931      10.178856599575262
   133   3      10.121983921879032      10.059259271538009      8.1185539141648277
   134   3      8.0963191236942826      10.135446398968227      10.183944879596734
   135   3      10.450222529178008      8.0110627404236716      10.172760152448648
   136   4    -0.55945400389337152     0.18301065442819206       11.98399814854772
   137   2      1.8968811446716518      1.9327489745304782      14.135234003846605
   138   3      2.1289181815315255      2.1156801372908682      12.187380157518396
   139   3    0.037736371571347856      2.0432677461491608      14.259553913824169
   140   3      2.1738139582581439    0.025384441283254847      14.051997063792566
   141   4     0.18013022373124132     -0.1891668717094068      16.591946402968937
   142   1      1.9843335456347493       2.041293834337258      18.234573374046224
   143   3      2.2089537841428073      2.0483972646645756       16.10129268383097
   144   3   -0.029671358487797596      2.1798191912932943      18.178566191083245
   145   3      2.0819020713247207    0.020764066151781533      18.182404314393548
   146   4     0.17973038052644871    -0.42316650981591608      20.214998119999041
   147   2      2.0229114290740853      1.9534970159661333      22.217666396478844
   148   3      2.0391709743280693      2.2065604367278069      20.299715882519315
   149   3    0.079382101815573411      2.1197086163524226      22.339360764809211
   150   3      2.1263598344982566    0.067134936686355423      22.245459139761195
   151   4    -0.33393331790282094      3.7497728867301392      11.833982513642132
   152   2      2.0299014181588584      5.9649315262426796       14.04351566107877
   153   3      1.9737217144255803      6.0869705841331099      12.163091335482321
   154   3    0.048718175134922971      6.2385955620454752       14.28528981463044
   155   3      2.0302044250573354      4.0745342696714681      14.240671944203442
   156   4    -0.19182640111012858      3.7894710577747572      16.096394481575629
   157   2      1.9664223860504304      6.0219052597993681      18.123705133721685
   158   3      2.0711299689570781      6.2604458777902456      16.220453005933681
   159   3    0.082759421293116323      6.1503079286888473       18.31001693506337
   160   3       2.112760750299727      4.1359332373871407      18.140716317515533
   161   4    -0.05287365457620543        3.78797013779797      20.072801101598074
   162   2      2.0342821969364828      5.9946090122362081      22.131051653689362
   163   3      2.1661046605650305      6.1004586767635294       20.24953908262162
   164   3     0.13080434281371925      6.1901420912967291      22.254133811769599
   165   3      2.0372941312900967      4.1147702696708484      22.463110469487418
   166   4    -0.24239399372982684       7.974534826038111      11.881237734538768
   167   2      1.9966091072710521      10.030251044026103      14.031706898414553
   168   3      2.1380436107949836      10.231978129738863      12.163917837239113
   169   3    0.084388608374629775      10.133205445711829      14.243681718508448
   170   3      2.0453174810919057      8.1458137970438163      14.214667511571642
   171   4    -0.17785148246052751      8.0355352078322326      15.895405864745488
   172   2      2.0089256357988723       10.09237612062161      18.100813067411412
   173   3        1.98695254774958      10.157610497699499      16.226914963053677
   174   3    0.058542921771944235      10.185578611726818      18.467415790718231
   175   3      2.1157579864761598       8.156632224960271      18.394459099705134
   176   4    -0.21940370226200598      8.0870038834683271      20.263219305856516
   177   2      1.9638820080369059       10.01924146962727      22.271926578842329
   178   3       2.275286528403671      10.202688142002872      20.335182730189171
   179   3    0.077672688188636221      10.075339190224641      22.148756980853296
   180   3       2.239025096365447      8.1239102537532961      22.314122423427655
   181   4       3.733320855533977    0.078904245423122077      12.056951604187672
   182   2      5.9844934572992887      2.0160555615795972       14.21688050550685
   183   3      6.3055780963695751      2.0090382349392866      12.149786357161757
   184   3      4.1046057852249893      2.0932974835795863      14.051635541043025
   185   3      6.2060713071489495   0.0065221460548765533      14.000479871790461
   186   4      3.8153392943827291     0.11072083260809878      16.613272647640141
   187   1      6.0823804014946843        2.01905963520989      18.194711965840025
   188   3      6.0846915875445271      1.8854537222657501      16.124669553390163
   189   3      4.0566450419804259      2.1066702727213409      18.180151364169539
   190   3       6.261951516228061   -0.035982567964825539      18.217073608628201
   191   4      3.6791737658304711    -0.24326016081708773      20.131441526279186
   192   1      6.0002548580437143      1.9943293293515809      22.292135509204957
   193   3      6.1737926214020957      2.1463520801469276      20.247129955264949
   194   3      3.9967274265601209      2.2422414126420662      22.293511917710649
   195   3       6.243401931418032    -0.02117763410225668        22.2268321217785
   196   4      3.8448140049796318       3.963113314589537      11.889837280426041
   197   1       6.018815123263046      6.0070077855703889      14.176816041861523
   198   3      6.2139877458003516       6.078984267158142      12.162652734012422
   199   3      3.9606236105689447       6.198439296583139      14.226386073490715
   200   3      6.2787558877700524      3.9527982184979504      14.175466375862479
   201   4      3.9504462920857049       3.706719235143813       16.45241886665675
   202   2      6.0995730033294739       5.999385061130452      18.198044388072379
   203   3      5.9836536245176886      6.2681271054811818      16.236198044198439
   204   3      4.0419853156284757      6.2480802786884491      18.243310230462502
   205   3      6.0142185288833687      4.0909403789272778      18.152424078600202
   206   4      4.1704931534512379      3.5482202340255395      20.092366601001956
   207   1      6.0437508306379213      6.0961527849891759      22.267399777991979
   208   3       6.202243268658993      6.0191288989078675      20.222628966586036
   209   3      4.0244380817734324      6.0984213720088336      22.494269023878996
   210   3      6.1829339963417267      4.0757646867311843      22.422860693364029
   211   4      4.3006166835532103      7.7651396714081153      11.852560807952425
   212   2      5.9385392051233064       10.00865467701079      14.247070869098087
   213   3      6.0096748343705562      10.285078773661587      12.249382804016497
   214   3       4.029936998007889      10.204345176984921      14.321561004239326
   215   3      6.0668369616968869      8.1373996083061808      14.153494419813146
   216   4      4.1156520302938677      7.7616378250045042      16.053408351927001
   217   1      6.0687293467084142      10.086100981131978      18.242575537176943
   218   3      6.1551024873313951      10.232734034460281      16.157343022115832
   219   3      4.0174191671678461      10.266280589864035      18.236040747003315
   220   3      6.0268391536237456      8.1000956857687179        18.5046242353841
   221   4       4.103403544535011      8.0414917695862815      19.941882292115839
   222   2      6.0223597156522493      10.086591420588707      22.270440076646533
   223   3      6.0582545023481833      10.356894113754661      20.314139500197612
   224   3      4.1197307558604139      10.273417846358587      22.440159463741736
   225   3      6.0730661250649067       8.174700683483529      22.169200572199227
   226   4      7.8665060122958561     0.01307276715183117      12.169072209966259
   227   2      10.123815821261942      2.0508167684391614      14.059469688184709
   228   3      10.214965873087641      2.1396441816275948       12.16210057085998
   229   3      8.1817096418737005      1.9363777093894936      14.288258967990624
   230   3      10.220082365391058   -0.030599635428379447      14.110947741705525
   231   4      7.8689932386579047    0.095800709054166613      16.401831694995632
   232   2      9.9917796340306761      2.0456339801207517      18.249424418533827
   233   3      10.333889498964909       1.934048184252017      16.260085161684071
   234   3      8.1301324679160825      2.0515771709783164      18.109439443728991
   235   3      10.150142210605058    0.044443281854367855      18.290897358586353
   236   4      7.6400157585541413     0.19785555523067344      20.326465421450479
   237   2      10.056579307549766      1.9580907375994778      22.280681319894722
   238   3      10.124864683794417      2.1332523952991487      20.241337052105091
   239   3      8.1639656781426027      2.0763941884079165      22.287311776358994
   240   3      10.207787267752487    0.052577881098211543      22.237020578661156
   241   4      7.7226122522273428      4.2488475885471049      12.165443736838183
   242   1      10.099759025537777      6.0530444129241312      14.161058367743346
   243   3      10.200340035330687      6.0740659625954434      12.144661680079361
   244   3       8.091512112532417      6.0467587021417843      14.403721975903867
   245   3      10.141087624024699       3.972673880311635      14.396125348986665
   246   4      8.0873197849895444      4.2023303572988073      15.860408368961822
   247   1      10.030616677765074      6.0534312535512402      18.236198564211865
   248   3      10.260494289754185      6.1121348636443917      16.210818900959712
   249   3      8.0368375307821989      6.2090721900781611      18.085692772435387
   250   3      10.312516795015009      4.0016492912786719      18.161535733112942
   251   4      7.6394690524376818      3.9400724966807017      20.467301133552443
   252   2      9.9722677337251042      5.9917553149490246      22.278742012335663
   253   3      10.226854305765267      6.0858381919969053      20.286777236861123
   254   3      8.1202821603265924      6.1847541973404274      22.284385633791267
   255   3      10.161933925353708      4.0795301473326528      22.286776847640105
   256   4      7.7161277138779942      7.8609072044812054      12.027266346577429
   257   2      9.9593869704161797      10.103878809810331      14.210017963634177
   258   3      10.340127813816647      10.148002998662815      12.228870283885067
   259   3      8.0751466447878268       10.20234028266422      14.112405251217314
   260   3      10.232692228980151      8.1761841930350467      14.172773991004011
   261   4      8.1424457496305909       7.659480029502336      16.046657032359683
   262   2      10.014167251093395      10.097036085183355      18.319372325937771
   263   3      10.175449282701123      10.217940010627432      16.178734973783275
   264   3      8.1347270150971998      10.231944564529051      18.205078734940464
   265   3      10.197252558289934      8.1830633680074012      18.248487595974911
   266   4      7.7710803693593844      7.9205720495899463      20.165597027932026
   267   2       10.12642006311812      9.9974674846416942      22.374398085082014
   268   3      10.231594821688221      10.213708715574622      20.195487480783449
   269   3      8.1624302450401309      10.120306305605535      22.125185566011183
   270   3      10.256413380076634      8.0983421034779237      22.143802814621999
   271   4   0.0096815374065106468      11.747339188960421     0.31039245115490322
   272   2      2.0280442736680997      14.154375739973419      2.1174578811830496
   273   3       1.985082614240085      14.309683623555607   -0.024884017629748904
   274   3    0.037509512783167519      14.227494993044887      1.9514243122806023
   275   3      2.0201235084658329      12.212148040112087      1.8819803199652623
   276   4     0.23383372906524924      11.665250503166973      4.0208142654635957
   277   2      2.0183369373202216      14.104838849051834      6.2199317118396271
   278   3      2.1236670957591057       14.13045470177881      4.0253058928641545
   279   3    0.040925377960815461      14.286246462729816      5.9562875514595843
   280   3      2.0114210307077864      12.215027922113125       6.154950105069636
   281   4   -0.087967823601534156      11.843563469227334      7.9494162668910748
   282   2      1.9738776705397469      14.090738775326214      10.263321177257078
   283   3      2.0072536199159785      14.290857959483503       8.106025157836461
   284   3    0.061533385729255041      14.423702366149152      10.124800308683602
   285   3      1.9417463197074065        12.1786751537129      10.117669201206986
   286   4    -0.10530812287592187       15.86309080602482   -0.018026034113014379
   287   1      1.9679370131947085      18.149941884166044      1.9940445369241055
   288   3      1.8452693832525211      18.263914966513635    -0.05250697656943195
   289   3   -0.062703321380969651      18.444901423035788      2.0313405649475595
   290   3      2.1842621137036708      16.131046688582369      2.0866860856510168
   291   4    0.089146178029261919       16.17750000834921      4.3775511827702616
   292   1      1.9870655019020553      18.198220265429242      6.1103211448588777
   293   3      2.1411846648096771      18.316793856417824      4.0372057215222048
   294   3   -0.072723207842413998      18.230543224601078       5.822887614381699
   295   3      2.0119296408086216      16.152273111615752      5.8385727049074667
   296   4     0.23332058319717874      16.260082628652867      8.4755950827887698
   297   1      1.9882390873470968      18.195274583429526      10.228973510416251
   298   3      1.9362332216156035      18.346903055253051      8.1071606491410098
   299   3   -0.055606777981665134      18.191864645791771      10.026053224093355
   300   3      2.1308430601016966      16.182378512836667       10.00892731170276
   301   4    0.048561549059478716      19.897813691894278    0.079154222011306452
   302   2       2.029876145937668      22.193583946348934      1.9673007204861508
   303   3      2.0173213658456501      22.512130272971948    0.049451874611184422
   304   3    0.059592524413824059      22.437032933513866      2.0553900186685117
   305   3      2.0491858661728912      20.322996552788837      2.0248483989244437
   306   4     0.17368979056919201      19.835190931709771      4.0683428189907911
   307   2      1.9188268617064994       22.18852350347494      6.0903220159395746
   308   3      2.1551037665835424      22.417086365813763      4.0706471631300589
   309   3    0.037741190433064564      22.448170152584158      5.9272432804324717
   310   3       1.993941457271404      20.333820870133824       6.051338159065117
   311   4     0.10791213663245278      19.909901526658274       8.352155672787859
   312   2      1.8812605507438898      22.288792819564975      10.201403445569145
   313   3       2.060150229125993      22.446268395957777       8.056011572961598
   314   3    0.023473420277277692      22.431022078328201      10.119011062690928
   315   3      1.9915542330009992      20.361892514933416      10.028448651116381
   316   4      3.9210189350537989      11.786833639933006     0.34556863514415315
   317   2      6.0445521015459001      14.131728351656598      2.1798010006357598
   318   3      6.2560513656452779      14.180286383502471   -0.013481319262611893
   319   3      4.0809529264308697      14.124028107968709      1.8521843730793868
   320   3       6.229246095876368      12.202960655211088       1.914419745440932
   321   4      4.0042822726749625      11.628262169864913      4.0823481510950934
   322   2      5.9992371278297929      14.125558562802837      6.1812113457537237
   323   3      6.0468894584313055      14.195307398753005      4.0707510577035828
   324   3      4.0695061834019786       14.24302541740014       6.092082532915378
   325   3      6.1729996010431289      12.230369957164577      6.0866395167318812
   326   4      4.1601990398971296      11.714687614236976      8.0051157570727884
   327   1      6.0571862124125211      14.171374977615367      10.131876385418746
   328   3      6.2019543377234259      14.258834795308465      8.0653078336453845
   329   3      3.9898632527519027      14.220464067566979      10.202239631328446
   330   3      6.1892679377596798      12.173469207455961      10.227212880618662
   331   4      4.2139716464260788      16.408839178599468     0.37640582298557618
   332   1      6.0784608547062486      18.148098256071844      2.1019923165012808
   333   3      6.0819492385424336      18.280208795902162  0.00027222054395041834
   334   3      4.0296306856403064      18.271251418766155      1.9286924229040694
   335   3      6.0326408786294001      16.131678074419984      1.8951763426822177
   336   4      3.6452468738388384      16.372679295167178      4.1288000680364574
   337   2      5.9707561190456797      18.133639493707964      6.0982309733379561
   338   3      6.0462239633076731      18.420395640732362      4.1364947139728976
   339   3      4.0849941865025032       18.27222500922371      6.1256692910304693
   340   3      6.1610834125160441      16.245520141102993      6.0633371239182381
   341   4      4.0107312696497388       16.30494199116394      8.6067085043586768
   342   1      6.0791255713428445       18.25960870376403      10.161717574921095
   343   3      6.2463032002465688      18.325266820025067      8.0520532936445814
   344   3      4.0515571556998387      18.403959983540485      10.062121895899116
   345   3      6.0039130683443993      16.239549073607694      10.072536006221929
   346   4      4.3913498693231263      19.899292770018612     0.27395376352958051
   347   1      6.0622532324978771      22.290378145498138      2.0499401858645654
   348   3      6.0686447186964907      22.477414574405813   -0.040854178369175431
   349   3      3.9889635818266496      22.523048529488012      1.9938602578132216
   350   3      6.0994586495131591      20.277693624027293       1.954230088828327
   351   4      3.9450700885005796      19.843928520754279      3.8158366308200802
   352   2       5.946686973303879      22.230403240234605      5.9865749219999662
   353   3      5.9627316866653546      22.300156715582158      4.1049686623505242
   354   3      4.0543030802763376      22.404571330393406      6.1717228019653234
   355   3      6.1670874859942169       20.31388748086254      6.1931537754897823
   356   4      3.7465941615670499      19.852168534694488      8.2602656326809072
   357   2      5.9974735284479417      22.242637983254145      10.133641158170057
   358   3      6.3152511024672204      22.381546356447682      8.1212243494467007
   359   3      4.1191985144735348      22.261513172354661      10.023664167741831