(written by ASE)

1080 atoms
4 atom types

0.0      24.299999999999997  xlo xhi
0.0      24.299999999999997  ylo yhi
0.0      24.299999999999997  zlo zhi

Atoms # atomic

     1   4     0.24960522913461561    -0.28215431667333074    -0.21390169129989939
     2   2      2.0489996609572469      1.9192729037177971       2.019713264384166
     3   3      1.9681183437647134      2.2508592726099117    0.047373061948717501
     4   3    0.016267892591292871      2.1214197593340494      2.1355110506101034
     5   3      2.0564344157715229    0.054144467465951938      1.9901765919102994
     6   4     0.28686248046890067    -0.28483176665034748      4.0197600166949856
     7   1      2.0518962998068324      2.0046659259619242      6.0352742303985218
     8   3      2.0495634191603345       2.129811934395788      3.9862421181236982
     9   3   -0.033025515747006934       2.223420598717651      6.0802776996699608
    10   3      1.9756780108435656   -0.032101270056093784      6.2086298042328458
    11   4     0.53687272689055066    0.042798638666114663      8.1102446606317198
    12   1      2.0337110972883488      2.0483353758090623      10.118155030767293
    13   3      1.9073429383347027      2.1573126377058887       8.117893678951452
    14   3   -0.091630201654285426       2.172417000432731      10.341944404173557
    15   3      1.9020758032187381  -0.0021174651730182128      10.177019111572152
    16   4     0.15482675251785752        3.94351549018387    -0.28048782272464279
    17   2      2.0765848985053244      6.0675647530486909      1.8593692057866609
    18   3      1.9649304615878802      6.0126658591059998   0.0043965964686289872
    19   3   -0.042434340417507876      6.2378518563318828      2.1365868559707679
    20   3       1.886790962376971      4.1391542679833764      2.1696435076092446
    21   4     0.23321699017973083      3.7927892662925902      3.9826973971040132
    22   2      2.0948637656795888      6.0504623035214777      6.0077635726528564
    23   3      1.8948606548644289      6.2192306876351395      4.1269169642828425
    24   3  -0.0070757770473249913      6.1785494430512609      6.2291310293258553
    25   3      1.9888440622443622      4.1511350632116901      6.0906821163908935
    26   4     0.27373447754584018      3.7681399984133823      7.9487930510838005
    27   2      2.1262637695259432      6.1009638381004851      10.097310785749189
    28   3      1.9819629808546271      6.0358257126336756      8.1531598753092798
    29   3    -0.07981992135695308      6.0364330493424907       10.31640669957271
    30   3      1.9778160230186885      4.1327037946595961      10.359129039703218
    31   4    0.033652747795352225      8.1316216813082551    -0.41701398669919371
    32   1       2.007928546077332      10.076034554027167      1.9688133016229385
    33   3      2.0698999603498054      10.304748930320788    -0.06943765964288591
    34   3   -0.053491504151220656       10.09306378938785      2.0646654709508847
    35   3      2.0209070556407052      8.0490468338661323      2.0960553669432818
    36   4     0.25457317778728195      8.0902410212012192       3.775932470382398
    37   2      2.0671699593690498      10.152472412883487      6.0351290594588489
    38   3        1.86799219035264      10.044021857251215      4.1140175997124002
    39   3    0.013668218931179036      10.083702288755022      6.3168034949852707
    40   3       1.945103112439758      8.1297410334041302      6.2895439087066203
    41   4    0.031177223453596085      8.1392507612161573      7.8015756089254786
    42   1      2.0232847348707761      10.072727991053013      10.140135819768888
    43   3      2.0377842266458548      10.372032138341851      8.1185535641637134
    44   3    -0.11371568267549019      10.346484374724954       10.16984781232882
    45   3      1.8253852884742903      8.0578771616280118      10.136618254102155
    46   4      3.9331416010139457    -0.35517103827859486    -0.19773861631792788
    47   2      6.1500558282809115      1.9110364243608267      1.9676278859597056
    48   3      6.0751823549975468      2.3452147027870609    0.031050012830239834
    49   3      4.0076276029487952      2.2714664155240096      1.9154957277662323
    50   3      5.9428969219853673    0.024614499595996157      1.8205418439058283
    51   4        4.35252108674156   0.0018254675284474031      4.2677592852549049
    52   1      6.0838278932209793      2.0294679502172133      6.0164638857287915
    53   3      5.8350596091382751      1.8916247969692765      3.9584847687881113
    54   3      4.0558138199511626      1.9979535096190306      6.2438618513857254
    55   3      6.0082837593051268  -0.0056071032439680268      6.1978902403651857
    56   4      4.2191166928559598     0.12665496196475531      7.7115873204871166
    57   2      6.1568470993393793      1.9258106250006022       10.18426102947608
    58   3      6.1211004776997537      2.2121089776337475      8.1600943051018415
    59   3      4.0923514000910615      2.0879034339684024      10.117767720816719
    60   3       6.112777446317069   -0.030706984652237524      10.073168678240528
    61   4      4.1524913270161505      3.7930610733439019   -0.070760610231712789
    62   1      6.0449801235832608      6.0032558854656992      2.0257020464213369
    63   3      6.1215374229114499      6.0663899293432504   -0.060256561378154092
    64   3      3.9823718631728151      6.0721692056102903      2.1260003500718425
    65   3      6.1022488356034303      4.0140191865749237      2.3222576463796307
    66   4      4.2537855165887848      3.8007531222587505      3.9290878459662384
    67   2       6.135595785312562      5.9462445419318843       6.105131939463142
    68   3      6.0356056012282648      6.4216183236637869      4.1347236309377076
    69   3      4.0077232708258776      6.2344666241771369      6.0970022631704097
    70   3      6.0123390116303996      4.0934672426704042      5.8532114918349007
    71   4      4.0155518340195639       3.549586549887072      7.9856887537661265
    72   1      6.1211931509275272       6.022941262796758      10.076622437661975
    73   3      5.9494136828585962      6.0494146670078113      8.0318798647781904
    74   3      4.0335093477936805      6.1756949658120641      10.215297368487581
    75   3      6.0770828730557174      4.0197645567341169       10.39244624274029
    76   4       4.273902959769968      8.1645132407984136     0.15857474284016562
    77   1      6.0586403260311421      10.116004920473321      1.9975325699902631
    78   3      5.9034253525623255      10.361324169058811    -0.09597177068798958
    79   3        4.01224307482883      10.340018245664835      2.0036981072562341
    80   3      5.9057642223348719      8.1110463478672887      1.8239479958076874
    81   4      4.2849666065137795      8.0144123863381758      3.6832533444567255
    82   2      6.0930498726746407        10.0777807214075      6.0117683528539709
    83   3      6.0321420105860941      10.010938780019906      4.1210028884838339
    84   3      4.0372974235923982      10.241679980633343       6.193166241809724
    85   3       5.962038131046377      8.1838552453095463      6.3472568809909173
    86   4      4.2655892618671025      7.8397160601447853      8.1091259281635057
    87   2      6.0781084860342558      9.9634012303655126      10.212160314372142
    88   3      6.0011723444336482       10.44515483750941       8.162060978233793
    89   3      4.0896793312937572      10.308195591323971      10.129143389246256
    90   3         6.0844490349672        8.11723039247779      9.9372108423574517
    91   4      8.3267039065062161    -0.28313139785884522     0.15450906482732335
    92   1       10.12519392377674      1.9759848549666856      2.0013573462001117
    93   3      10.066162063924008      2.3229461857741196   -0.066784882944794371
    94   3      8.0550705610270246      2.0817961482548961      2.0529176850065016
    95   3      10.159327881849659   -0.025674671927719141      1.6816113172378522
    96   4      8.1050938901178622    -0.43664039338907057      4.1301485979463965
    97   2      10.039272722733147      1.9787984419720805      5.9650324498479019
    98   3      10.265404749522483      1.9857580148101253      4.0486858977110494
    99   3       8.114820126283254      2.1181133806561365      6.0897358144327232
   100   3      10.128185733498544    0.049855293347766248      6.2693841808061084
   101   4      7.9245362553875216    -0.18883584958530178      7.6425405851010835
   102   1      10.141480351798821       2.020475716278042      10.061052560513415
   103   3      10.064293808877876      2.3613113620900497      8.0548625236506712
   104   3      8.1019987580807626      2.1897877670835171       10.17451227737938
   105   3      10.009192931749549   -0.035377880007002017       10.08864675855906
   106   4      8.0952586239428346      3.7385668078936787    -0.11862397185182368
   107   2      10.262270888256786      6.0347483791139558      2.0272683374819538
   108   3       10.07006618632632      6.1023212409776395   -0.038454613491465416
   109   3      8.1158935235355454      6.2652869810127774      2.0817903962294624
   110   3      10.012311410549898      4.1143405762148291      2.2118408797798961
   111   4      8.0441160107175183      3.9689751517901675      3.7042126748346562
   112   1      10.095349632626011       6.036571420523658      6.0355439766501568
   113   3      10.113170184588229      6.3298484883845143      3.9776700472233326
   114   3       8.032169464667664      6.2382875811867855      6.0403440007375648
   115   3      10.333391476926238      4.0313434008113411      5.8863029964613602
   116   4      8.0752332528451287      3.6791921197339295      8.0760009234135062
   117   2      10.144352485798187      6.0745318312620187       9.987412688843019
   118   3      10.077997452653559      5.8355342466102753      8.1065812994166784
   119   3      8.1599347854821058        5.99775439040656      10.349493586460593
   120   3      10.188483030535116      4.0828007777099495      10.433264433248958
   121   4      7.8636638192972903      7.8471128685485221     0.31114026287276203
   122   2      9.9934130028811463      10.161624378610618      1.9985200555086278
   123   3      10.391332858013589      10.212196166927194    0.049071024582815627
   124   3      8.1168225914389058      10.063015149588487      1.9350541069560492
   125   3      10.223576991068787      8.1341910607464545      1.8407428337512235
   126   4      8.0691556553047423       7.766205188501595      3.9503820217171839
   127   1      10.021457012994796      10.147785529981899       6.021652851527179
   128   3      10.201923013981679      9.9830021938941158      3.9786493961979872
   129   3      8.0062824932145649      10.104978117755348      6.3013551032062347
   130   3      10.139226451310419      8.0997329888333685       6.257913873296598
   131   4      8.3570035924905888      8.0371092792419034      7.8107902062137597
   132   1      10.108892417606187      10.053289724127707      10.133144230589732
   133   3      10.187944728355109      10.265297223034644      8.0967128841415548
   134   3      8.0185828151470648      10.378329882729457       10.08456493066983
   135   3      10.096517107831902      8.0374188322113138      9.9249801410069018
   136   4     0.23180866453938426   -0.031860556729242616      11.813111275671227
   137   2      2.1532288326544062       2.108531413742325      14.167158287811084
   138   3      1.9938049661792847      1.9561162312954175      12.239004491148249
   139   3   -0.081762739772369086      2.0160802633611259      14.210169778648654
   140   3      2.0234149520814642  -0.0031235054910108279      14.434690501436819
   141   4     0.32033226740905552     0.06267730755570057      16.169319977228152
   142   1      2.0508800619268697      1.9828572166266738      18.203620620172924
   143   3      1.8060124884144946      2.0867912949990117      16.187131357575744
   144   3   -0.085605486034449854       2.250212258087656      18.336750723555525
   145   3      1.7634209063783197   -0.047609082201873577      18.142126786712282
   146   4     0.26810160365896674     -0.1982667229790569      20.123750698032747
   147   2      2.1052845982859361      2.0701083409019674       22.16520543769245
   148   3      1.9691100764196368       2.006758657507373      20.272835284961054
   149   3   -0.029959221365905422      2.0392633824514688      22.395255816256931
   150   3      2.0864994594073223     0.10849828093418347      22.450653597708897
   151   4     0.27699540479624352      3.9058584885404768      11.989687513696614
   152   1      2.0415344960099078      6.0334536208195448      14.174896467810692
   153   3      2.0016550234966015      6.2882611920935574      12.156303547249209
   154   3     -0.1179904444888069      6.1933904225343479       14.19998189048682
   155   3      1.9032212420254899      4.0087607462098225      14.183743013590325
   156   4      0.3415312688913455      3.9347824128635223      16.193561103207962
   157   2      2.1661209218704678      6.1015859294043508      18.205172668795282
   158   3      1.8464968063604223      6.0493932059904507      16.254326392415823
   159   3    -0.10638740748699789      6.0306091330841287      18.321955089483058
   160   3      1.9779549431099577      4.1296682820000443      18.327506314881067
   161   4     0.29074544688473181       3.974188648378103      20.048416668264505
   162   1      2.0224601418040278      6.0633228588645443      22.245570673182218
   163   3      1.9379734110606825      6.2524353637140049      20.197375295140681
   164   3   -0.079028341201296246      6.1937040170689768      22.335288132311856
   165   3      1.8105507554574916      4.0300293961747302      22.238382988857403
   166   4     0.34342493996253676      7.9619577918067392      12.082533866535323
   167   2      2.1260205176448492        10.0716029850885      14.223896129504917
   168   3      1.8001272966520856      10.121973134155594       12.25978387729422
   169   3    -0.12067472564044741      10.246612819750139      14.323783690527604
   170   3      1.8926877065821126      8.1710207498842884      14.319966946757212
   171   4     0.28510373382789939      7.9257784343459301      16.161771320414132
   172   1      2.0093130814287337      10.091310212635005      18.199497085712682
   173   3      1.8906544179270528      10.309278628640158      16.158611451556794
   174   3    -0.11378562815241518      10.318838094262921      18.126493628258569
   175   3      1.7264812467016597      8.0640018589348266      18.153033738795333
   176   4     0.31166453569471186      8.0255534555727372      20.167725544073139
   177   2       2.123607582370858       10.10988492645758      22.223939931006964
   178   3      1.7140743526791657      10.048709806103535      20.263336066365348
   179   3   -0.024616136117699701       10.08387609341789      22.477658156567795
   180   3      1.9310414100135356      8.1534086114878512      22.312900649873949
   181   4       3.880549111457646   -0.044965743201925208      11.655152158858657
   182   1      6.1179012050121511      1.9678957387503504      14.132759251990919
   183   3      5.9866679905554383       1.919056274558204      12.116711367968888
   184   3       4.026460429372805      1.9755387862320597      14.360377216116067
   185   3      5.9819945206213641   -0.083079930925189366      14.431766146440101
   186   4      4.1347279412073439    0.050080966204411652      15.961914673445413
   187   2      6.0672285660820364      1.8582382775846138      18.245799385407519
   188   3      6.1215505390215492      2.2332827575789218      16.257339905680912
   189   3      4.0931327202485512      2.0714957535034766      18.196042220683523
   190   3      6.0823104419584846   -0.051000873992771673      18.176762293795974
   191   4      4.1038711339510927    -0.27289578766807715      20.428981333993544
   192   1      6.0934717438849892      1.9483029837833057      22.266198099108987
   193   3      6.0534642882376231      2.0917478936771281       20.21092409607893
   194   3       4.009548086314985      2.2150858093740973      22.380009440507667
   195   3      5.8722008919088564   -0.059696261388702744      22.299368254280928
   196   4       4.272483136071842      3.8466131351143455      11.870927790337147
   197   2      6.1187453957001035      5.9230144501507693       14.16299460950151
   198   3      6.0522936155105178      6.3454839249330162       12.21027297027627
   199   3      4.0941130202157803      6.3094393462865508      14.161516071826073
   200   3      5.9971545874319041      4.0502223189675846      14.054967274952288
   201   4      4.4303915700743488      3.9218810967849813      16.352998852949682
   202   1       6.120465512717427      6.0825491539429377      18.211971779721591
   203   3      5.9773533092408284      5.9782355613380451      16.169963877411114
   204   3      4.0437947318404612       6.250556141741626      18.269022219469338
   205   3       5.915412597321688      4.0571416380900827      18.329799829499695
   206   4       4.294105728659936      3.8193076354178475      20.028643638390928
   207   2      5.9517445261633561      5.9913642552581905      22.295164735242842
   208   3      6.0777984815378074      6.4545203856259947      20.300040679608195
   209   3       4.063096077266743      6.1359741882942735      22.173849787393756
   210   3      6.1190773313939406      4.1299436391904205      22.109190274233697
   211   4      4.1242277417919571      7.7394366750836712      12.231720798775743
   212   1       6.097308205879286      10.128087201953196      14.153136165837894
   213   3      6.0020731254108011      10.061404143486763      12.121565305609002
   214   3      4.0015986152303791       10.20182644265237      14.202982239316148
   215   3      6.0952998009276902      8.1379091783066482      14.518135128568971
   216   4      4.3146979812641595      7.8587785290306202      15.986164876897586
   217   2      5.8661316744575416      10.084812517071658      18.205013352450013
   218   3      6.0664854125868111      10.545776286043479      16.291497766511856
   219   3      4.0222056313817207      10.050172487862127       18.27924750651778
   220   3      6.2688105207979881      8.1956832877161521       18.02384402907245
   221   4      4.0995641198281279      7.8540313547811156      20.342434927266989
   222   2      6.2361903021254932      10.104191321427178      22.265331202407967
   223   3      6.1325022976436951      9.8642530391069343      20.248647762005895
   224   3      4.0268636952413468      10.234574303913204       22.09378755891424
   225   3      5.9408490267064922      8.1730198867161494      22.476917572425776
   226   4      8.4759345826206776   -0.052836215591571936      12.116902534625462
   227   2       10.09795300526142      2.1432074930791427      14.096211524902154
   228   3      10.199733885536995      1.7561159914308244      12.186859191109942
   229   3      8.1589014364997769      2.0235722247854286      14.253233503516343
   230   3       10.10090422845836  -0.0071435506936364515      14.390981579267324
   231   4      8.4816376568374761   -0.052912312392210746      16.083278025472193
   232   1      10.146134486054748      1.9483736354642704      18.219856550056463
   233   3      10.076536834406912      2.1959909323990816      16.194244456538218
   234   3      8.0508822812278833      2.2012416356075879      18.246895607558013
   235   3      9.9017760513710247   -0.081466935713799191      18.113725065981239
   236   4      8.4313406059327871    -0.20752428541674778      20.116826878666391
   237   2       10.11744544051459      1.8862616501766887      22.276160156434685
   238   3      10.135627476104961      2.0437990212606589      20.290699721919889
   239   3       8.148244889647879      2.2215790622764526      22.255216922830826
   240   3      10.108146512677719    0.014345224830788907      22.398462945400468
   241   4      8.1320842559953341      4.0311749752525881      11.811009684849429
   242   1      10.140959819564371      6.0452819940357134       14.18382617937605
   243   3      10.152788422242072       6.397064889908334       12.17326156911755
   244   3      8.0666713067881073      6.2423192308490263      14.178336647068093
   245   3      10.246871201933768      4.0307492684893376      14.020591560791962
   246   4      8.1176044261077127      3.6433135574865783      16.258262691637608
   247   2      10.074735989473396      5.9683160810908458      18.172817909963321
   248   3      10.226058280268528      6.1115452802023986       16.27792429585315
   249   3      8.1892188300597475      6.1490395125240527      18.358263255708401
   250   3      10.208782383510348      4.1114016800019471      18.376556540448224
   251   4      8.0438298837461453      3.6780258587641659      20.187803619017178
   252   2      9.9941796018255502      6.0707547211344073       22.25155043689114
   253   3      10.261166680924307      6.3053766147503145      20.264060007331913
   254   3       8.101671318470121      6.2761207111393116      22.178389448055672
   255   3      10.107645421648087      4.1683104858488633      22.136889920835458
   256   4      8.1726899556234702      7.7062833099746433      12.093113870688821
   257   2      10.029448130836691      10.154225425100803      14.065338046228909
   258   3      10.076130382602773      10.005953501236533      12.191630982624584
   259   3      8.1500655275923304      10.202237823721635       14.39603544698782
   260   3      10.197290924149812      8.2235566451581636      14.452682068776946
   261   4      7.9823816793615432       7.982230646708615      15.910975501202735
   262   2      10.017292261558469      10.129079832784695      18.227292482228613
   263   3      10.297395835709846      10.347426682426917      16.294029859730237
   264   3      8.1441431616434503      10.338535192621263      18.239171734021333
   265   3      10.209720287825641      8.1985056734018755      18.208713385410913
   266   4       7.879712017699549       7.923609931636471      20.060745880258132
   267   1      10.068841177127625      10.109413070264326      22.270434765418713
   268   3       10.35067693240785      10.110561016568404       20.20937964725853
   269   3      8.0747006790000473      10.112380403914502      22.321000472367462
   270   3      10.401118280031826      8.0853303710787401      22.329014626799584
   271   4     0.10297329360661614      11.855047939214186    -0.27880692951177094
   272   2      2.0105516591384403      14.042402460894655      2.0070994776123525
   273   3      1.9191467728870883      14.259201597161562    0.064208631650151185
   274   3  -0.0055184079385391417       14.47352063728732      2.1401792881757595
   275   3      1.8016528265631333      12.174194260108012      2.2014293124835822
   276   4    0.054982426975268735      11.835524136235472      3.9848286414085363
   277   1      1.9819496781946584      14.102697146333846      6.0377912899985597
   278   3      1.9597632623547574      14.474175362228124      3.9995488825797532
   279   3   -0.085079312552364547      14.410874784404399      6.0851648971997845
   280   3      1.7932859291001326      12.093660007940956      6.0018531609930745
   281   4     0.15270995347950436      11.859701884248512      7.9283004351117583
   282   2      2.0295226429065778      14.104230000684472      10.040468298216767
   283   3      1.9001279469473924      14.106629690878016      8.1746704780844102
   284   3   -0.044317910908578478      14.211873417344298      10.329899457023965
   285   3      1.9667729218536991      12.237832707858031      10.377556047686767
   286   4    0.082892728244770564      15.966468638577318    -0.22041927342297343
   287   2      1.9518306940904873      18.188144752902339       1.978094443599995
   288   3      2.0272351521140766       18.37397017957662    0.060241551858578747
   289   3    0.049760376095392612      18.187811145350302      2.2003246861537615
   290   3       2.279919113699759      16.260895578768388      1.9601561081222052
   291   4    0.046860680168445863      15.949499585042346      4.0405553768928337
   292   1      1.9973938307484891      18.224650918465933       6.017154449778138
   293   3      2.2851179328278075      18.145786874747909      4.0054414415694399
   294   3   -0.045326186740802521      18.250945116325589      6.2395803079605203
   295   3      2.0983327170863282      16.206429488919458      6.2491971530987138
   296   4     0.22081535653065965      16.171650321084694      7.7065366364922694
   297   2       2.087161242042983      18.223144348815815      10.142057776857447
   298   3      2.0027524269774966      18.436336795205996      8.1826505135499925
   299   3   -0.047174288170107229      18.441761728947331      10.222648120171437
   300   3      1.8297946087799106      16.224998037814807      10.095841410719196
   301   4     0.29326977027002599      20.410913198693912    -0.22872434966090943
   302   1      2.0628103325148968      22.263064057850496      2.0055796794293221
   303   3      1.8295211538165148      22.293578531735818   0.0082071546225710983
   304   3   -0.029212476929718706      22.345383518520112      2.3599196378314979
   305   3      1.9560062726480993      20.220125909203233      2.2628583545893819
   306   4     0.14022475159114905      20.363165344779041      3.8126719146295343
   307   2      2.1332803517297796      22.238903921830154      6.0933061591407718
   308   3      2.0957890830575523      22.378089452688787      4.1062597974644035
   309   3   -0.015728862378107944      22.317583765430207      5.8837152913553732
   310   3      1.9979415474457443      20.270180780445596      6.0546775001239537
   311   4     0.22561092889343212      20.126834956458495      7.8423236306096538
   312   1      2.0305749918009175      22.250255279147833      10.054442397187161
   313   3       1.764402338155967      22.204829305854442      8.0580851790329096
   314   3   -0.058751174632490043      22.213457385415655       10.44392749290088
   315   3      2.0558431451480956      20.231539986955887      10.382552919000862
   316   4        4.06444313351916      11.873564307386109     0.14491776633138981
   317   1       5.997028583136375      14.225318445257745      2.0093898247026445
   318   3      6.1284291432367537       13.90471465987968   -0.052331303628173155
   319   3      3.9490186485035905      13.968922655548319      2.0468237772153115
   320   3      6.1525288466040546      12.145398959303773      2.1962135142008696
   321   4      4.1713543247886768      11.973196570965069      3.6238883090443252
   322   2      5.9027993382421009      14.115654946086964       5.975725693938613
   323   3      6.1274291705883659      14.222288800584906      4.1107387257139605
   324   3      4.0355414036973993      14.167248413175978       6.142301570747521
   325   3      6.1292995892663864      12.157411266507907      6.0045584807761756
   326   4      3.9990366946153624      11.800371314418667      8.2119646472917402
   327   2      6.1027247824895001        14.2003995098105      10.026188886249642
   328   3       6.106670429382449      14.016403785342158      8.1516786879797483
   329   3      3.9637796489675821      14.247146185429688      10.246467111851446
   330   3       5.994135422020717      12.257291956445405      10.435540103549302
   331   4      3.8430459245384774      15.971474037117849    -0.19077650200955101
   332   2      5.9963000478880941      18.075568687805564      1.8726693228669435
   333   3      6.2059065998319793      18.358389439598561    0.027924136848762736
   334   3      4.0825187316004827      18.519935888717853      2.0008602750189861
   335   3      5.8916515062694712      16.221744865090219      1.9042006864832899
   336   4      3.6718528747058343      16.148766437191068       4.110646543895113
   337   2      6.0254932987251646      18.307999694222939      5.9885554437286466
   338   3      5.9621394942550987      18.055290508408437      4.0729025810744854
   339   3      4.0602198058280807      18.222759558098197      6.2622346589467464
   340   3      5.9974617086052806      16.121062246121127      6.3229757733684355
   341   4      3.8805749655456867      16.232297062974386      7.7434684992764957
   342   1       6.081437659651141      18.236705290759012       10.10398342114998
   343   3      6.1078210202426444      18.256637533427458      8.0498199801659958
   344   3      4.0006479219441324      18.229502616117738      10.179745344373851
   345   3      5.9894466045820351       16.14658725678812      10.095037503019682
   346   4      4.0015605133225316      20.242412696086291    -0.37023268937353027
   347   2      6.0027706230321582      22.133087190911546      2.0165873583856904
   348   3      6.2334895346360844      22.237300670838938   -0.026612912822032469
   349   3      4.1137004365545842      22.148427036759472       1.864352138235436
   350   3       6.272105722166498      20.272263037009033      2.2197686895384319
   351   4      3.7793350111183988      20.108173467066127      3.8399940103853494
   352   1      6.0502297177375004      22.225685065043947      5.9935149440166837
   353   3      6.0134409193643492      22.565400138849444      3.9478260796033195
   354   3      4.0363380972963538      22.311957262813539      6.2237311285800478
   355   3      6.0893034297224586      20.202307847074241      6.0016629154817478
   356   4      4.0923676598149994      19.978963754697972      7.9278655687187465
   357   2      6.0707751470529514      22.162660373313141      9.9871809312041258
   358   3      6.1917784789979304      22.166124103523451      8.1158163345625987
   359   3      4.0979284295571805      22.313412171044803      10.211889353864201