(written by ASE)

1080 atoms
4 atom types

0.0      24.299999999999997  xlo xhi
0.0      24.299999999999997  ylo yhi
0.0      24.299999999999997  zlo zhi

Atoms # atomic

     1   4     0.18340919260122121    -0.26479164750080564   -0.095596094246211127
     2   2      2.0648153159811029      1.9162120889548355       2.036247889199835
     3   3      1.9779249360882905      2.2609652108900145     0.01883724854024476
     4   3   -0.012710663766558128      2.1018515350302844      2.0755866432054111
     5   3       2.022122341725519    0.051561536215751824      1.9450553821466812
     6   4     0.10684066959172024    -0.24144361895788144      3.8624573821758807
     7   1      2.0296349447979662      1.9994678890144779      6.0336980647732403
     8   3      1.9858650771680451      2.1269188386748827      3.9808954026475836
     9   3   -0.042870708868786196      1.9862057063299172      6.2227502011061349
    10   3      2.1253666017501471   -0.044885485227271475      6.3382000701370051
    11   4      0.3634325997225869     0.12635827588015458      7.9017354048366624
    12   1      2.0470107517075617      1.9967819291584645       10.12701926122044
    13   3      1.9548209188155254      2.1876739853646052      8.1239698452096683
    14   3    -0.10407073868450331      2.2159544933635589      10.234964162797558
    15   3      1.8048575279861432   -0.062884499898273397       10.12903866685247
    16   4     0.22309443933882914       3.968165186328974    -0.19837451017739829
    17   2      2.1161034066274516      6.0567958745510326      1.8931660493455469
    18   3      1.8617101241574798      6.0478988464016501    0.001116211246230462
    19   3   -0.069529898517945568      6.2085874683770585      2.1734591346010577
    20   3       1.808237767291422      4.1321094593561147      2.0954057740289733
    21   4     0.15087621419137492      3.8484532862311571      3.8911673247387739
    22   2      2.0639455021006028      6.0360119358722972      5.9928532965767136
    23   3      1.9131083880959159      6.2106437727560646      4.0933244513215321
    24   3  -0.0035014953218142695      6.3242718288234485      6.1579887219737985
    25   3       1.824848910450243      4.1470844718233018      6.0499228979214035
    26   4     0.26279979858393876      3.7698327785658718      7.9745804562507159
    27   2      2.0952782089598996        6.09535607788467      10.094898640953689
    28   3       1.924626444852608      6.0208549615731579      8.1489339989659761
    29   3   -0.091928212945193058      6.0484239661843011      10.360546602274384
    30   3       1.954983117040606       4.138493128467104      10.362408207194592
    31   4     0.31337104440511448       8.002139408148361    -0.21055005737591492
    32   1      2.0235403897081836      10.061016627182791      1.9516293795456201
    33   3      1.9123906339781036      10.149244970305846   -0.089976144873230801
    34   3   -0.060680092927390183      10.163909746637071      2.0273077940194275
    35   3      1.9067214345678469      8.0314523791666144      2.0441668661143049
    36   4      0.1837010607159556      8.0306576439727255      3.7736832580062871
    37   2      2.0546652560675889       10.10518364367768      6.0574302304229812
    38   3      1.8395089605823434       10.04619593480461      4.1241923303351751
    39   3    0.018375190392684877      10.009443064299221      6.3210315508726449
    40   3      2.0457666559155525      8.1221208859340788      6.3111068923595575
    41   4   -0.011308085230896867      8.0886547972824623       7.798305954712518
    42   1      2.0309387810299984      10.072613312263064      10.145262404391699
    43   3      2.0503349610726991      10.381117211463378      8.1209176285842837
    44   3     -0.1149092074031859      10.319695106984305      10.189160144018718
    45   3      1.8156410526428892       8.058973372815796      10.131736835968526
    46   4      4.3709225014297379   -0.050412309154927289    -0.10976434822922938
    47   2      6.2426824624308122      2.0129860000637745       1.982016322186223
    48   3      5.8785680133796081      2.1224359671363398    0.032132381561488746
    49   3       3.964328263081967      2.2744741126471264      1.9675546971333957
    50   3      5.8182607531757666    0.051502099502281379      1.9170463939643125
    51   4       4.427360841217145     0.01639968479443105      4.1776352214075061
    52   1      6.1031352375959393      2.0139560560474208      6.0313355387735523
    53   3       5.845506816037763      1.9103394479164517       3.963557768958009
    54   3      4.0382778313570054      2.1553686959688916      6.1232871856716038
    55   3      5.9269021917369633   -0.009061503923788506      6.1772565891454061
    56   4      4.1879486869243472    0.080537926737359947      7.6971844082754286
    57   2      6.1138138798687045      1.9207373181161169      10.109252500069671
    58   3      6.0662544678976413      2.2049626581563877      8.1394201870332346
    59   3      4.0893614669905727      2.2118457992596459      10.103565388425338
    60   3      5.9962074449139919    -0.02722643192529034      10.051917516686714
    61   4      4.2351750427653858      3.8195748654648978    0.013730884053315124
    62   1        6.05242801876022      6.0172668608612154      1.9757841628379951
    63   3      6.0100220059735081      5.9819028721562626   -0.053198508808826518
    64   3      3.9849578488177797      6.0561593807538241      2.0576191789882543
    65   3      6.1493140002956048      3.9854370246667412       2.180915669124686
    66   4      4.2057150990008543      3.6746676918958916      4.1822430140855467
    67   2      6.1466367591476061      5.9305633468385262      6.0956155736263335
    68   3      6.0018828759100034      6.3354666365202643      4.1508248010597182
    69   3      3.9767307686359956       6.088060929673075      6.1339810834522233
    70   3      6.1121818656011921      4.0664959955042423      5.8830457299589973
    71   4      3.9655168786398938      3.5683409839934201      8.0095205967562375
    72   1      6.1241639860437287      6.0235344005087352      10.070793935490137
    73   3      5.9443755267951568      6.0702760177357842      8.0383543131987238
    74   3      4.0131850589596336      6.1586229495087013      10.211257703932667
    75   3      6.1031113426834596      4.0256841939079013      10.408157899492425
    76   4      4.4200549599428891      8.3255931785989024     0.23027516688572647
    77   1      6.0618851571155288      10.157019848723079      1.9561094736748792
    78   3      5.9008963630894948      10.190189603784704   -0.082326887164179144
    79   3      4.0201618546536455      10.078638223476649       2.165984758970962
    80   3      5.9689344425589566      8.0973215095355933      2.0303472876401023
    81   4       4.255559419917474      8.1168760539085447       3.671186527561785
    82   2      6.0763712515869637      10.067394633872402      6.0567025745188721
    83   3      6.0570003470567171      10.055746815403305      4.1554240638274873
    84   3      4.0263945871702402      10.334402575869301      6.1537861252230046
    85   3      5.8972841756651881        8.17276333190968      6.3226069173528048
    86   4      4.2569092928616143      7.7932392281005605      8.1222203742586014
    87   2      6.0742117332022607      9.9625147075961351       10.22242494702965
    88   3      5.9776686997064257      10.439140717410103      8.1515678845006629
    89   3      4.0826859334417884       10.30357295271172       10.13509371980631
    90   3      6.0589593264081287      8.1151799018367345      9.9504595487590155
    91   4      8.3466462890493318    -0.26149660553646353     0.10653769430311048
    92   1        10.1504291558854      1.9700128921913997      2.0170404621461211
    93   3      10.139979928739837      2.2926821359618659   -0.052775110467347591
    94   3      8.0976436633723488      1.9155676462911078      2.0149152482725126
    95   3      10.239630673898809   -0.045525774815953109      1.6904522374857511
    96   4      8.1422017345982134    -0.39342157946215106      4.1099619221653523
    97   2      10.076563953969409      2.0071802067103226      5.9035607515321313
    98   3      10.221308708464385      1.8266743724043788      4.0356308056207126
    99   3      8.1331827007269535      1.9459898646281648      6.1975482588625272
   100   3      10.209542394939154    0.034911625257516635      6.3155301652900597
   101   4      7.9881852982802002    -0.13581869624981896      7.6290679057422972
   102   1      10.104680214430502      1.9878607683127691      10.071804101040549
   103   3      10.104977699806412      2.3515861898592485      8.0714145774075412
   104   3      8.0626953956509997      2.1909988418065454      10.109876171566119
   105   3      10.177122257566351   -0.043139966446889902      9.9595269051563999
   106   4      8.4396600408535694      3.9666263593789428    -0.19517372068867284
   107   2      10.215949331822397      6.0735308832002115      1.9413383907303563
   108   3      9.9062516120449988      5.9999585892705447    0.013217953407133233
   109   3      8.1152192680451165      6.1099811527690289      2.2284967373245714
   110   3      9.9958099517932091      4.0858310552101091      2.2090351012744134
   111   4      8.0944040276933276      4.2056398582691195      3.6927074550324455
   112   1      10.054935999713702      6.0305317818791053      6.0299665845942654
   113   3      10.259655070697535      6.1949759683400591        3.99198550987981
   114   3      8.0268225359560006      6.2641782739242347      6.0745207116952447
   115   3      10.167048734230788      4.0039168198582109      5.8443931572422851
   116   4      8.1211855611165884      3.6540879110700319      8.0291580349433094
   117   2      10.133307458216185      6.0561686573194535      9.9788810749743941
   118   3      10.071180480646209        5.84855417268765      8.0936260929696999
   119   3      8.1627831239649939      6.0324598365399327      10.336112587984982
   120   3      10.164066033380871      4.0806006454673911      10.405558854179334
   121   4      8.3308909763536416      7.9245343701514628    -0.35775545820799054
   122   2      9.9635366351933836       10.14954611919155      1.9914648963374495
   123   3      10.229261192169758      10.316162237437242    0.074627368764205781
   124   3      8.0894782043955455      10.184828076760239       2.097279899183643
   125   3      10.135352829604452      8.1335925390434767      1.8927524856938933
   126   4      7.8063855073626627      7.8979229482780884      3.6756770672357333
   127   1       9.996391318995288      10.134471013951282      6.0291250955682365
   128   3      10.231105743440631      10.019767126652614      3.9997595417318741
   129   3      7.9941879930796942      10.064083257579121      6.3221995512593567
   130   3      10.201851160840906      8.0885388216007783      6.2489800432358393
   131   4      8.3383058073435947       8.007145735794202      7.7752584614557216
   132   1      10.106590403646377      10.063927654785051      10.125504018521161
   133   3       10.15489411194997      10.278283389810765      8.0952785882620155
   134   3      8.0145624441468239      10.327466981050314      10.083697789292534
   135   3      10.177929492122187      8.0387505852902805       9.943328814268483
   136   4     0.20864188133961892    -0.10813610996624724      11.970572031562339
   137   2      2.0906375300146278      2.0608687986285243      14.085328819920091
   138   3      1.8848822731038894      1.9666800093634518       12.20316333874611
   139   3   -0.096646470719476477      2.0001333153108964      14.347862844869056
   140   3       1.950422276190547    0.047526409061042774      14.347860956224466
   141   4     0.20382308491033352    -0.23223093582206791      16.070676797221545
   142   2      2.0608633617341612      1.9658692369973831      18.146186098417182
   143   3      1.8956672837125672      2.1643773734561504      16.249067112238482
   144   3   -0.071940577439339612      2.2090552828700747       18.29883249008066
   145   3      1.8124019857257667    0.075955002090565341      18.208644953399791
   146   4     0.19195602205944715    -0.25517292256623048      20.093418743863818
   147   2      2.0971019526669732       2.024892258058252      22.219018023218645
   148   3      1.8705265416626491      2.0262238615024692      20.284872091272529
   149   3   -0.062005011635743533      1.9948741272066621      22.442676471203892
   150   3      2.0402413301628575    0.074955388173774368      22.449502628235152
   151   4     0.21604692087535687       3.934788580218989       11.92910706090308
   152   1      2.0417186855607756      6.0336519602402179      14.168328371531915
   153   3      1.9890343775293744      6.2996565122952051      12.161959290886678
   154   3    -0.14910339186592075      6.1969071384262682      14.306570701150557
   155   3       1.805877286535762      3.9936819584021701      14.193793879273008
   156   4     0.22832235026058673      4.0738262014805899      16.009997169511202
   157   2      2.1628305693098686      6.1005888080407242      18.211084379611556
   158   3      1.8453414403158119      6.0062499932191411      16.267776117208733
   159   3    -0.13398752242663128      6.0624932364309414      18.283301214996847
   160   3      1.9381617370195872      4.0737661476314555      18.372889700745244
   161   4     0.30821656698624644        4.09671394788149      20.191080214417077
   162   1      2.0650367732040702      6.0488311020568117      22.236928049841325
   163   3      1.8274507828268314      6.1329703735351337      20.195948298886865
   164   3     -0.1220751640753731      6.2603214675555909      22.293263911014506
   165   3      1.7476512239369397      4.0137697078148538       22.22659532111145
   166   4     0.32202839508642572        7.97814648601189      12.041497224519892
   167   2      2.1366073040739577       10.06190234264524      14.232465854213004
   168   3      1.8016132787624721      10.115125328266688      12.268356759871116
   169   3    -0.12704333054515374      10.182713550940758      14.329230303545241
   170   3      1.9009535866906426      8.1602957946653056      14.339518842087879
   171   4     0.28926918173311816      7.9399779853035124      16.150580311432787
   172   1      2.0579452781561578      10.092393094513453      18.214386193841698
   173   3      1.8835072398083179      10.293327585131832      16.170073108404644
   174   3     -0.1266266661170159      10.291907601059185      18.195237593250706
   175   3        1.79204660316138      8.0373575748600388      18.183318776156359
   176   4     0.34375864345538182      8.0065291160743719      20.231761398749352
   177   2      2.1664695385261665       10.10379634055114      22.221061412611913
   178   3      1.7470270381425725      10.088295800151137      20.280768673021623
   179   3    -0.10193140426770268      10.124900842465131      22.411361084806284
   180   3      1.8819521687079839      8.1426255553506781      22.254972040465699
   181   4      4.4830518646233761   -0.052188253454665573      12.335022447263393
   182   1      6.1461987558470756      2.0097963406254484      14.135026570721386
   183   3      5.9570310560932569      1.9065023803270358      12.109617923797108
   184   3      3.9652030005957171      2.0352027420921424       14.27363670368034
   185   3      5.9162998749513962  -0.0071754853712255682      14.234440486313938
   186   4      4.4162955550122813    0.077039129019829802       15.94274713053194
   187   2       6.249553845388311      2.0272751680280683      18.235211840469404
   188   3       5.901497292208191      2.0756877858822009      16.274045957581986
   189   3       3.936499039834489       2.013283565939139      18.286781142114418
   190   3      5.9938301619246603   0.0062201237268857427      18.243805773981066
   191   4       4.383929236516698   -0.037713687777758971      20.235315375096196
   192   1      6.1330157455471541      1.9575987920664955      22.264585267609046
   193   3      5.8905089080407542      1.9691568747577644      20.195511283568784
   194   3      3.9782458297238228      2.2097351015228601        22.3071445183955
   195   3      5.8109489990912042   -0.052936114649737576      22.332070286534911
   196   4      4.2576615334340708       3.865309937729386      11.830282173769678
   197   2      6.1395792748448645      5.9544368383902606      14.142121391323073
   198   3      6.0542389300923398      6.3149427233614617      12.205931839289113
   199   3      4.0880253035070826      6.2654304391868747       14.15718670133665
   200   3      6.0383188336027001      4.0456006502015569      14.145908600798766
   201   4      4.4344824192259447       4.001443381271927      16.180974728562894
   202   1       6.120463528965483      6.0458536558098652      18.191043345718317
   203   3      5.9132924315015165      5.9509760143888926      16.167041374767344
   204   3      4.0301859348145133       6.156034288074725      18.287180898697752
   205   3      5.8717735589703741       3.976114906936584      18.290873591496013
   206   4      4.3946596554187707      3.9358255060946665      20.215003479159776
   207   2      6.0226052376224724      5.9599850060050388      22.351250875589979
   208   3      6.0978346573334674      6.3331535637414129      20.246188200259891
   209   3      4.0863053981809001      6.0787334160253801      22.074175211508134
   210   3      6.1361215246291891      4.0684542122007716      22.068461217536775
   211   4      4.0958273104505025      7.7194370965480585      12.233596696670402
   212   1      6.1056925679578171      10.108094824536851      14.159127543826914
   213   3      5.9982587379912866      10.068216650498137      12.127465129348639
   214   3      4.0065606299081562      10.201854585591988      14.211864176139779
   215   3       6.096074189532108       8.095817151091163      14.498406574017771
   216   4      4.3489253603292246       7.849328406662976      16.017356715759398
   217   2      5.9299711723005446      10.043654607969794      18.221771343884015
   218   3      6.1101034065606292      10.494174845154889      16.270963284910763
   219   3      4.0727221683280916      10.133974328375377      18.208613938382676
   220   3      6.1558460027644983      8.1612693732562267      18.003196051833374
   221   4      4.2747440740079101      7.8255786063018329      20.383261332140709
   222   2      6.2426608155370866      10.132657441275752      22.275002681698886
   223   3      6.1245137606440743      9.9580409381638546      20.248607550065067
   224   3      4.0339876362319824      10.139318924535822      22.152711595452789
   225   3       5.950026269168907      8.1346019151606725      22.354256014128346
   226   4      8.2583873680334303    -0.28156396602336475      12.354589297790799
   227   2      10.149061305203498      2.0707661047576043      14.025220671937559
   228   3      10.183636698928213      1.8068366246536272      12.146275092137332
   229   3      8.1794149812566541      1.9584887942832008      14.350649626780461
   230   3      10.159123094040506    0.015476772998261187      14.384699505939631
   231   4      8.2711667413771082    -0.21606064352818896      15.832406947914736
   232   1      10.165509047936181       1.935254445423366      18.203494914094275
   233   3      10.190715849443796      2.2622228452441409      16.196967766505107
   234   3      8.1054435707982435      2.1050899543583088      18.212230658742893
   235   3      10.011773177461023   -0.080977818019310102      18.131262460134288
   236   4      8.3732239753387088    -0.25239200234541176      20.116854318676427
   237   2      10.123157796617356      1.8708309885239554      22.274732217082814
   238   3       10.17529800137471      2.0138070960829766      20.282304038588478
   239   3      8.1520436520281603      2.0525889798211847      22.220362525176863
   240   3      10.198584610500678   -0.017663253933400638       22.41795532054833
   241   4      8.1105016675910395      3.9917483810565351       11.77176252170255
   242   1      10.169808211473484      6.0443085739645888      14.159069275026255
   243   3      10.163536524584707       6.397095818413896       12.16048463043321
   244   3      8.0843426243720753      6.2197187491794059      14.210561759003891
   245   3      10.112933215861718      4.0088725094713329      14.096082166424145
   246   4      8.3675478780675245       3.727926547823039      16.021619933914636
   247   2      10.012538840290365      5.9360185510749233      18.188315104676764
   248   3      10.251841542260808      6.0375065387367579      16.270739152043042
   249   3      8.1407026999766376      6.1355386211570622      18.256270675588393
   250   3      10.183115898737498      4.0815594599665399       18.41037171553468
   251   4      8.3195391505019831      3.8064821058933758      20.454740518095711
   252   1      10.129202579634741      6.0503629087276778        22.2210540004723
   253   3      10.134053758725182      6.3859676771096376      20.179111541963024
   254   3      8.0269058683036612      6.3022414165519836      22.211568889784591
   255   3       9.927556262171386      4.0645961949063976      22.158460026713499
   256   4      8.2138037590196653      7.7258502943023037      12.071788380448009
   257   2      10.057819714256956      10.170336358879071      14.042226099940166
   258   3      10.093944173715061      9.8971140307847367      12.178632782637193
   259   3      8.1533679537357386      10.125678860770959      14.403360497402126
   260   3      10.186739513598781       8.205999410454341      14.508394793062646
   261   4      8.0602282444509932      8.0030506318768548      15.886414615668931
   262   2       10.09789590126368      10.056625203473446       18.24621251649679
   263   3      10.188802383383615      10.464380008564886      16.272264914400537
   264   3      8.1649528960759277      10.394389298895033      18.223153736518238
   265   3      10.186510891383191      8.1746521491834905      18.087953563555814
   266   4       8.006629287655489      7.7337737194302942      20.222081122218409
   267   1      10.107300283640591      10.185659735782732      22.244816257300489
   268   3      10.313272668523901      10.061949103251916      20.215298180745986
   269   3      8.1011814937137157      10.103531193628834       22.34855842225404
   270   3       10.22516830884031      8.1369959476942206      22.477307202180821
   271   4     0.22474470409485406      11.884856730624234    -0.16863885356261199
   272   2      2.0137732064672953      14.048260996021407       2.003625365035071
   273   3      1.8735764288658823      14.161077133611302    0.075103732106001658
   274   3   0.0012192904747118421      14.387870526217752       2.154459677085693
   275   3      1.9079766654296959       12.16598823914239      2.1852369358273567
   276   4    0.094085042787486695      11.812461213419924      4.0007851181080909
   277   1      1.9947585054538894      14.089712192500135      6.0624691117280163
   278   3      1.9884928667910793      14.452959141574233      3.9996099294419336
   279   3   -0.075583711868410536      14.489667806145331      6.0591976021131622
   280   3       1.709846791644464      12.083283445502751      6.0176451698542177
   281   4       0.193529583647433      11.873409494623834      7.9275713108521622
   282   2       2.060149211495935      14.124962247661765      10.046123287587362
   283   3      1.8713065993383424      14.118649998760326      8.1801054302504621
   284   3   -0.077657666548471574       14.22412655270063      10.297542019973376
   285   3      1.9264543270233623      12.247833795420961      10.360411717507887
   286   4    0.078836213809454991      15.951746098929158    -0.20524108245646119
   287   2      2.0241033429105317      18.143811440415931      1.9833251211452663
   288   3      2.0046599308147952      18.504728189678957     0.02399139527332983
   289   3    0.039462652683597471      18.315160437091134      2.1050395090767098
   290   3      2.1433789895147588      16.237922653587873      1.9128819354779478
   291   4    0.083706801753255233      15.940984918495994       4.080706014833166
   292   1      2.0069010269789214      18.280691990916289      6.0364603492839599
   293   3      2.1595937560783862      18.157355707165877      3.9965822961540365
   294   3   -0.056519398166069774      18.190355019956964      6.2597789480062831
   295   3       2.151388377259567      16.225087590346423       6.220879504207498
   296   4     0.30825993986269701      16.209166905702759      7.7291932118747235
   297   2       2.129314035766372       18.25030987069454       10.12911182868781
   298   3      1.9523369128314798      18.360454918180455       8.198345741656043
   299   3   -0.096139145135763757      18.363487980348623      10.218027511591211
   300   3      1.8324125164386926      16.240365380745192      10.152976444224723
   301   4      0.1555820527666929      20.139717171043021    -0.10019197155975058
   302   1      2.0564753087893539      22.271205975546817      1.9599720626560697
   303   3      1.7531312537975647      22.259564319122244   -0.065366995772366016
   304   3   -0.030835388181623125      22.426064220194537      2.2289927865291643
   305   3      1.9321382468126584      20.252863208001532      2.2610285668896317
   306   4     0.12223896585756679      20.212292400580292      3.7665695483420243
   307   2      2.0749052926032263       22.25403561215369      5.9589995621057508
   308   3      2.0405152146401218      22.425762028352391      4.0839466784104772
   309   3    0.012235540359719268      22.568240324851075      6.0878416666963027
   310   3      1.8119966427025385        20.3251508031151      6.0782344770472587
   311   4     0.17240487455832329      20.067741805547705      7.8386031133779026
   312   2      2.1107493590233486      22.325261600154693      10.066645298984051
   313   3      1.8331446295312179      22.170393919123072      8.1857862459188766
   314   3   -0.060174294614809505      22.227610461699587      10.403224842304693
   315   3      1.9428218226985512      20.269910657937391      10.348848824552245
   316   4      4.2313506602866076      12.318948100475732    -0.34320238076279291
   317   2      6.0617082948201677      14.276438412197269      2.0024312528715198
   318   3      6.0426383371059007      13.903367194825387    0.061309199808117013
   319   3      4.0075924879760487        14.0671395528618      2.0166983182547162
   320   3      6.0342618400709105      12.171532216060948      2.3204839016450212
   321   4      4.0905370582851663      11.839143818598918      3.6443015143875348
   322   2      5.8898645321209946      14.093216175241931      6.0042647660537884
   323   3      6.0899419005237547       14.28274834536013      4.0881569599753798
   324   3       4.036430380662213      14.105455234743605      6.0909874444360117
   325   3      6.1998542470657991      12.182377171528758      5.9922121147189902
   326   4      3.9991094817317792      11.810159320708795      8.2542174065965419
   327   2      6.1398475182412282      14.197220896779546      10.032425582314373
   328   3      6.0783712259140117      14.052448117511677      8.1354578123561705
   329   3      3.9602948543685708      14.221983701044527      10.239422976264333
   330   3      5.9915020788534186      12.249260150615481      10.390797411635511
   331   4      4.0461108449629961      15.931138410904783    -0.32938998278569698
   332   1      6.0235379235053879       18.17723525474382      1.9994188454043285
   333   3      6.0655639778332739      18.410168181693862   -0.090940905225448995
   334   3      4.0103686630493831      18.532022749777919      1.9486026581040403
   335   3      6.0093330829019234      16.137803827819319       1.876082730357354
   336   4      3.6441331385031295      16.178898076224943      4.2798525211342078
   337   2      6.0253386822749988       18.30907767039513      5.9433106421099335
   338   3      6.0628485145424182        18.0787582681773      4.0564544973096073
   339   3       4.058284044458536      18.259378967914614      6.1654908914825786
   340   3      5.9377229542337835      16.137529351045121      6.3091924353215578
   341   4       4.003600384967605      16.427234234079425      7.8151457437282508
   342   1      6.0733101521813921      18.230748652027554       10.10475731709778
   343   3      6.0295267044787861      18.191132028368166      8.0578021003697611
   344   3      3.9885857589484859      18.209161583764576      10.205466066598316
   345   3      5.9376559741705224      16.138088632945895      10.101343803397004
   346   4      4.1678726372589283      19.969629069362103    0.003872023581046026
   347   2      6.0070240971273945      22.169206814617432      2.0499221561404877
   348   3      6.1118278253957188      22.373316315339594  -0.0039810327961409177
   349   3      4.0912773273604977      22.093387945966324      1.9972382531100015
   350   3      6.2629392932037442      20.297372697705811      2.0613176397135513
   351   4      3.8368564434781747      20.130711001441153      3.7126803954403651
   352   1      6.0597035302798847      22.247179915220613      6.0161185371209545
   353   3      6.0560282510047916      22.517841541523911      3.9853640823166212
   354   3       3.979916006631905      22.177465181975176      6.2588050992042055
   355   3      6.0981927290557687       20.21460425761779      6.0750802942935866
   356   4      4.3498104870576126      20.250351452934037      7.8953890636320887
   357   2      6.1894740939164832      22.182307473317756      10.060086271699747
   358   3       6.035842776235226      22.148096883125863      8.1456146274752328
   359   3      3.9857020920831325      22.263854333920925      10.125425052855055