(written by ASE)

1080 atoms
4 atom types

0.0      24.299999999999997  xlo xhi
0.0      24.299999999999997  ylo yhi
0.0      24.299999999999997  zlo zhi

Atoms # atomic

     1   4     0.15450354795966845    -0.28806914191387739   -0.018718178875013168
     2   2        2.08370204594361      1.9634437478430689      1.9951939138618831
     3   3      1.9394134263767699      2.2247486808071901    0.022724564190789793
     4   3   -0.035876941589098356      2.0229357976471776      2.0605725523956613
     5   3       2.082534812652487    0.099934599381241149      1.9891549197949179
     6   4     0.12235641867638307    -0.21708761388079711      3.8502467775432505
     7   2      2.1346424705750389      2.0772066817683856      6.0773356858763927
     8   3      1.9304647707612208       2.107684747230449      4.0403667065782543
     9   3    -0.04993492791481996      1.9380122202703423      6.1720507598570924
    10   3       2.042452324630653    0.079542825959703883      6.2233931413766683
    11   4     0.22118026648111494   0.0055367774320303756      7.8874182419794634
    12   1       2.078800456549883       1.988703992864123      10.092124612465529
    13   3      1.9236364908676105      2.2126687395083784      8.0538028635922796
    14   3    -0.09364397362072438      2.1054630976216431      10.298115046017381
    15   3      1.8320125508493057   -0.033186698036994575      10.146083710282939
    16   4     0.28005684913977458      4.0913676277413291    -0.12772917788743937
    17   2      2.1790938623882261      6.0868568280800188      1.9990679186950882
    18   3       1.799909802485353      6.0355162944801002    0.040644781870377997
    19   3    -0.12931408336281952      6.2867816174978479      2.0962218171803104
    20   3      1.7328505886500323      4.1101630789853427      2.0570281365796603
    21   4     0.28810621736065622       4.078591142119536      3.9806123646766154
    22   1      2.0541420861219626      6.0646701175612101      6.0219172166684407
    23   3      1.8233163798519791      6.1001810439574218      3.9782273454300299
    24   3   -0.098912105752012411      6.3327448095898298      6.1121557964594251
    25   3      1.7257225607764755      4.0362162551401708      6.0241869823629264
    26   4     0.28370740157549823      3.9877536747484275      7.9451542050746218
    27   2      2.1254540414067131      5.9807336942562612      10.160482909294652
    28   3      1.8008430817487115      6.0614366982028542      8.2101664532563632
    29   3     -0.0841251378116743      6.1998157316953293      10.334072060603692
    30   3      1.8538419948820648      4.0968948338450231      10.270104787897219
    31   4     0.31579353834626067      7.9433567930462088    -0.12943144454031444
    32   1      2.0183711152633683      10.068352869049129       1.953112548150236
    33   3      1.8598347629844896      10.194524866288486   -0.091478693383981249
    34   3     -0.1003720525857853      10.152473821743268      2.1229826968927736
    35   3       1.965111222502991      8.0350882420865553       1.981722675421707
    36   4     0.25084700138199451       7.897127051197586      3.8650315048461721
    37   2      2.0885145687222972       10.13138165334227      5.9713500001201014
    38   3      1.9282330796383693      10.097228777929073      4.0902245433038891
    39   3   -0.036763534991548795       10.07098713906624      6.2129642483785679
    40   3      2.0285515693421314      8.1827769012509055      6.3221942205597683
    41   4     0.20960676645234733      7.8772327104984381      7.8793549344565372
    42   2      2.0592035724006692      10.044343293310702      10.143958904049068
    43   3       1.869012610730145      10.309742234919799      8.2167302587424835
    44   3   -0.043026620459221933      10.220373459977935       10.28463270264292
    45   3      1.9402702383726735      8.1468914748151189      10.089306707685484
    46   4      4.3511894065154628   -0.050644738329535616    -0.15561118583076725
    47   2      6.2523064342108281      1.9885359716078073      1.9885308845039351
    48   3      5.9113981555678361      2.2115437835919614    0.044383468875271677
    49   3      3.9568768706249897      2.3409544173759467      1.9847021329287877
    50   3      5.8053049313662735     0.06740884201981609      1.8647184560296375
    51   4      4.4515306996552209    -0.03957706213184594      4.1562270943087318
    52   1      6.1118629628484289      2.0318097378116566      6.0112003103757807
    53   3      5.8616286990161601      1.8847491947140249      3.9527336927940495
    54   3      4.0104714710466718      2.1870861522949441      6.1128264246362756
    55   3      5.9483243267500523    0.021064156881832337      6.2179536679604217
    56   4      4.3724054177598113    -0.15849646319806607      7.8553660602912503
    57   2      6.1442763091426826      1.9252588931346151      10.115953154678332
    58   3      6.0649718314145424      2.3076101271164324      8.1325944079434596
    59   3      4.0981753805940757      2.2913885908522755      10.068808114779824
    60   3      5.9668682002080908   0.0084931632287344686       9.957398230531938
    61   4      4.2834564739657424      3.9056904840563433   -0.045464703049471672
    62   1      6.1372820912552992      6.0436033973065539      1.9568219275663399
    63   3      6.0604829082943876      5.9253144814744214   -0.054262640687320861
    64   3        4.03259388110905      5.9226489543898557      2.0083218255642383
    65   3      6.1533468067068933      4.0023732613808347      2.2828158246667187
    66   4      4.4186487263521554      3.9898652025633234      3.9589757082511476
    67   2      6.0471960945324037      5.9434805812223921      6.1344733004221679
    68   3      6.0174753102482574      6.3113765389146597      4.0805409510575448
    69   3      4.0687795525115753      6.0924936892603672       6.173318132259749
    70   3       6.134538529545166      4.0530704381245943      5.7663116020123786
    71   4      4.2445229250095515      3.8100544004567198      8.2061431164590193
    72   1      6.1154173466246968      6.0530150613176872      10.077668235891649
    73   3      6.1053034077609674      5.8335850053529219      8.0608707412838339
    74   3      4.0025409417825673      6.0580444541674874       10.16950385047828
    75   3      6.1045715584847553      4.0376063053193336      10.419962489808217
    76   4      4.3886939851397022      8.3156106607501883     0.25275848417514368
    77   1      6.1359011381341428      10.069094203441477      1.9716210033485337
    78   3      5.9426124715822839      10.225635166481148      -0.100335028976236
    79   3      4.0221876589927978      10.211783912600955      1.9800789557627236
    80   3      5.9032664270083064      8.0707941749799161      1.9619216532071753
    81   4      4.4886559368390353      8.1471269941554922      3.8155546254004631
    82   1      6.0047154008028167      10.075356947396173      6.1317623282558253
    83   3      5.9779871552146524      10.104555752514722      4.0781735621413091
    84   3      3.9704853812330012      10.252906875637224      6.2837021952911023
    85   3      5.9723362677014693      8.0735970046832932      6.3378581977624169
    86   4      4.1226081170853801       7.880679749254349      7.7789561105921479
    87   2      6.1198464179229921      9.9451023355562622      10.167893900286115
    88   3      6.0227502161383102      10.463695986244062      8.2222388183947608
    89   3      3.9700211285563096      10.269933959997539      10.082337284670555
    90   3      5.9987086833587275      8.1073988446756342      9.9645842970837819
    91   4       8.380984591338855    -0.23295614250656357    0.061959721126210218
    92   1      10.167500024914828      1.9620262789085832      2.0161108808729007
    93   3      10.159681331260208      2.2797620161068384   -0.065270212621739029
    94   3      8.1053798899657856      1.9251665642880793      1.9757123803175773
    95   3      10.222726867251682   -0.059870782516663314      1.6660567054750672
    96   4      8.1562956172892456    -0.37037312178419168      4.0982219201685766
    97   2      10.097771763586534      2.0058924740250159      5.8895460961790507
    98   3       10.19154091912104      1.7878263122279807      4.0320897874454182
    99   3      8.1479177444621005      1.9679835743364709      6.1908872485782789
   100   3      10.189903583614665    0.028679766200079986      6.3354267953726344
   101   4       8.040429381278102    -0.11393170916164334      7.6358277013881377
   102   1      10.103388589229045      1.9918911073420542       10.07012121098276
   103   3      10.114367036768604      2.3560235373604348      8.0722301419177693
   104   3      8.0648014740928922      2.1782030815691353      10.117440779793974
   105   3      10.209274943662621   -0.036836714681505185      9.9433783200231893
   106   4      8.3918632287232366      3.8670952162271743    -0.28383441958067429
   107   2      10.205028885736542      5.9619613491223147      1.9237237034168411
   108   3      9.9625166275660018      6.0570343029794858   0.0046469799821591828
   109   3      8.1723823690314337      6.1342591299101557      2.2717506128300715
   110   3      10.021061713568558      4.0532081388253109      2.1927083380445618
   111   4      8.1105309556756247      4.1738598710386565      3.7924941645132915
   112   1      10.053350179959615      6.0377023347937158      6.0488867973767944
   113   3      10.303078083964396      6.2198397539689463      3.9930703275965214
   114   3      8.0388304249241447      6.2757851447357238      5.9383437546123119
   115   3      10.199172179922252       4.005236214243542      5.8277037562555059
   116   4      8.1451614725805079      3.6991263398479792      7.9938682840310085
   117   2      10.103109933232675      6.0814615870147026      9.9655059359492348
   118   3      10.117707280476935      5.8416247872033678      8.0897136216380598
   119   3      8.1638623831098158      6.0631188522931216      10.345450206848897
   120   3      10.139711686093797       4.093753365822943      10.414785755711247
   121   4      8.3396997513426427      7.9478774135889108      -0.375626060041926
   122   2      9.9972452541082113      10.066368115589887      1.9599909184018731
   123   3      10.247742032770361      10.282682864873106     0.04621759863593055
   124   3         8.1370695917416      10.113458152343442      2.0614753729665258
   125   3      10.245941748850155      8.1296796199412515      1.9147682004479947
   126   4      7.9358426579580685      7.7793573553569342      3.9000110205136256
   127   1      10.057146290303544       10.10443013555259      6.0452321853531892
   128   3      10.263579981334443      10.098260077063243      3.9773592936179276
   129   3      8.0447774824874543      10.142156834758708      6.1690438905385516
   130   3      10.233754882741245      8.0854225831328979      6.1955616298810687
   131   4      8.1082748472981088      8.0987302182496954      7.5424178825589641
   132   1      10.072013901956854      10.083230152145664      10.125241248104469
   133   3      10.147963418473434      10.262300460365607      8.1028530121871221
   134   3      8.0156364424287379      10.247042969386074      10.174477896368826
   135   3      10.257965461131063      8.0493099913837032      9.9637117638036621
   136   4     0.16905474389752198    0.023226289655123581       11.85519505330212
   137   2       2.107748355183408      2.0708895150348976      14.105730125702266
   138   3      1.8962764287303133      2.0001017180823117      12.212976542514749
   139   3   -0.093612485571640522      1.9959156344469642      14.327276903352237
   140   3      1.9555847715944006    0.050128338256525386      14.367647638889071
   141   4     0.12017723594975556    -0.13038202844773059      16.017475921436723
   142   2      2.0534200172026393      1.9923670628646986      18.179646480094814
   143   3      1.8691112961270555      2.1536829753957321       16.26112404330096
   144   3   -0.070744379912538694      2.1787806664901002      18.320167421260741
   145   3      1.8817191685131984    0.086478635573686805      18.260995011657357
   146   4    0.093129004296098411    -0.23104550952883562      20.221003298439637
   147   2       2.094574968731957       2.052887027860832      22.222896204452997
   148   3      1.8924326663213784      2.1183136035853241      20.277218776401053
   149   3   -0.074718529055207941      2.0221166695632178      22.365341936778155
   150   3      2.0436494689059455     0.11576245732400162      22.345937993917261
   151   4     0.14229524382793621      3.8328380966223339      11.953621253197147
   152   1      2.0566992327387235      6.0307988018813248      14.162846759883537
   153   3       1.963201290325705       6.308579034920327      12.129512957453588
   154   3    -0.13727231306362292      6.2693251137541353      14.218015689654246
   155   3      1.7957371907267639       3.999761929526485      14.212352233374276
   156   4     0.23851998185722031      4.0540491117092312      16.047299686197189
   157   2      2.1529732031377669      6.1117730759590847      18.213426839406171
   158   3        1.81475983790116      6.0415509767232569       16.26213717352891
   159   3    -0.14016280860477084      6.1241397268591635      18.303136996043463
   160   3      1.8813327041431058      4.0959612725425698      18.321312890092898
   161   4     0.29791169352456159      4.1269280648706506      20.230053708151942
   162   1      2.0799914941751094       6.064456982713244      22.262201370697749
   163   3      1.8241264750152411      6.1288322601387319      20.203493412268553
   164   3    -0.13308234344002129      6.2611827131700828       22.30070161307053
   165   3      1.7465251707216662      4.0420795643969845      22.262075605425956
   166   4     0.15509421821692934      7.8320127903303218      12.188523816946544
   167   2      2.1031243287101518       10.08466995582687      14.203461387085351
   168   3      1.9742959113320893      10.108577008239491      12.194316848187508
   169   3    -0.10869426859244884      10.168534104945151       14.25002423797152
   170   3      1.9168373122171933      8.1767897298230601      14.295661244211995
   171   4     0.29571381521562989      7.9414941255785756      16.146144748519948
   172   1      2.0462490257105754      10.098578801652517      18.221266737633748
   173   3      1.8374819672677973      10.264601857136723      16.159616637101959
   174   3    -0.12792917665947834      10.286565663802255      18.245964670282675
   175   3      1.8093756903071119      8.0516131943807157      18.203687956284188
   176   4     0.33334415488771124       8.004016081735454      20.208764852397522
   177   2       2.163415104727485      10.078592891300586      22.243468316335097
   178   3      1.7757363550732361      10.118078952830654      20.303411561572346
   179   3    -0.11282691212599008      10.171106392264702      22.356023886749199
   180   3       1.898536956687817      8.1532190611132744      22.279800127597984
   181   4      4.4671131919513662   -0.072054112645763418      12.360189296727739
   182   1      6.1427464565646908      2.0035924612675418      14.171882521457432
   183   3      5.9284416029090368      1.9031247907425792      12.106327424469061
   184   3       3.976321170046488      2.0765021547822782      14.245863929365063
   185   3      5.9107245572285043  -0.0061350275982577918      14.232991732017108
   186   4      4.4549589433190562     0.01355993370191565      16.003631069692418
   187   2      6.2580099006391627      2.0133655841934592      18.234569749076467
   188   3      5.9190584004031619      2.1157155078538019       16.27561432156125
   189   3      3.9310111706811615      2.1045668960355473      18.261440100952242
   190   3      5.9294066904573599    0.044841012798401192      18.241453339015305
   191   4      4.4054200665098042    0.013243972420483426      20.308581973484412
   192   1      6.1473437468731165      1.9846555734824054      22.266451310586227
   193   3      5.8930153981098012      1.9954991739139192      20.202376874380519
   194   3       3.978408361642229      2.2334162612077675      22.333808974002686
   195   3      5.8291625819189168   -0.027259334398259484      22.324013605262802
   196   4      4.3568608877609121      3.8231877439767605      11.958411887207143
   197   2      6.1287734145336294      5.9380780575957992      14.168761682274477
   198   3      6.0556288005324159      6.3300577950333334        12.2098420883166
   199   3      4.0906562537456219      6.2619451844950271      14.152949273023053
   200   3      6.0398789776168593      4.0386031396482966      14.065261578800865
   201   4      4.4301604610493435      3.9833931450849867       16.26597765142051
   202   1      6.1422627973618118      6.0554898906810442      18.190887843650458
   203   3      5.9348885135551086      5.9259731679192011      16.163565792785271
   204   3      4.0208064305913034      6.1256364216789319      18.261020150982404
   205   3      5.8957120813651631      3.9929337742999533      18.298668885803437
   206   4      4.4314961209049306      3.9670127509831548      20.218438754005792
   207   2      6.0459385770599097      5.9862826542220304      22.345893193580906
   208   3      6.0905943187165885      6.3435242003505463      20.244539229277581
   209   3      4.0934680094527449      6.0617839328982752      22.101775999056937
   210   3      6.1418463798628027      4.0816935873629543       22.07117738588444
   211   4      4.2041148826035908      7.7886186520885969      12.289170985552074
   212   1      6.1114230139577836      10.104784638678378      14.139622862271148
   213   3      5.8612618672088272      10.060669574063448      12.107504386116474
   214   3      3.9853790740370769      10.225579267469367      14.303924956969851
   215   3      6.0683258603125463      8.1026427018936662       14.47327011820339
   216   4      4.3404481534870838      7.8682551418344948      16.027526801570655
   217   2      5.9221486025806707      10.028561683361383      18.203437180028271
   218   3      6.1248767495844163       10.47987847872175      16.262713472748889
   219   3      4.0587968296970889      10.174163881114112      18.151751032656485
   220   3       6.101826253185151      8.1428549316887224       17.95683160627004
   221   4      4.2913644532683275      7.8368865559062089       20.39145884695612
   222   2      6.2446748576706881      10.135890078039365       22.24127705344981
   223   3      6.0422763040351359      9.8559893878992888      20.233697518159047
   224   3      4.0211490676088273      10.164191905823669       22.20029305857955
   225   3       5.906339512246654      8.1163331116845097      22.397313537473455
   226   4      8.1164022430204028    -0.29906304302868125      12.418544705309884
   227   2      10.126288850042165      2.0552509545168203      14.033611519384129
   228   3       10.21370920974614      1.8109823606503022      12.150495008272344
   229   3      8.1770130572253379      1.9421838815027976      14.336321418798047
   230   3      10.184590475054431    0.016158310839279967      14.429524003159887
   231   4      8.3014589817515301     -0.2379776260655028      15.890679578875202
   232   1      10.187179198453409      1.9364170760855182      18.193756384866628
   233   3      10.196529906742329      2.3030667361763486      16.204226498548746
   234   3      8.1153074538474836      2.1056357530029177      18.232433724830265
   235   3      10.013487935546031   -0.080210938360586598      18.111940341066155
   236   4      8.4275295817973319    -0.18793740450109273       20.14935407151064
   237   2      10.165731056670086      1.8685773602526108      22.257077149432138
   238   3        10.1386813969467      1.9745303153406046      20.269831264643038
   239   3      8.1673288618570687      2.0669218582067419      22.283702741855809
   240   3      10.185518654341982   -0.028236950258734236      22.407806947050567
   241   4      8.1509736217983626      4.0126643108265485      11.794132849002331
   242   1      10.162278974545233      6.0406973634522139       14.18067742695861
   243   3      10.141970354997612      6.4022886940901289      12.173082684098777
   244   3      8.0719997517200603      6.2342683873703777      14.196569912411281
   245   3      10.083129966895042      3.9999956159008834      14.070995973350065
   246   4      8.4076982169715002      3.7868920671874653      16.033870959100092
   247   2      10.064545903973334      5.9770540572501574        18.1544794797849
   248   3      10.140719264987542      5.8962556694651269      16.253566577932933
   249   3       8.171590915184499      6.1626582552214817      18.293029692955056
   250   3      10.179070123807032      4.1081731935589811       18.49599040951507
   251   4      8.3730156923140804      3.8284258638011339      20.370076290631751
   252   1      10.139386605032852      6.0362100765490787      22.211038610610835
   253   3      10.149282185566868      6.4018988664457481      20.191546709268714
   254   3      8.0464004397353452      6.3176418579754374      22.206715655865708
   255   3        9.96162192328819      4.0501031931604867      22.117405242178908
   256   4      8.1870447527055301      7.7232972391355164      12.105093513295358
   257   2      10.138623151060935      10.126313057876548      14.021523478899359
   258   3      10.140198863108981      9.9063284766179684      12.168543554805748
   259   3      8.1815408798817639      10.147831501333192      14.385711156178811
   260   3       10.15479899156135      8.1800947296249547      14.521310809294297
   261   4      8.0887656544063731      8.0180366504895328      15.870199691900451
   262   2      10.017277699655901      10.063727385278181      18.243191950559751
   263   3      10.152885250104671      10.488608082170686      16.322241415448385
   264   3      8.1364426067716202       10.28621342460171      18.266285211433779
   265   3      10.210984103084204      8.1831165666561816      18.074115354979948
   266   4      8.0541403852373996      7.7277268692688379      20.211513283547202
   267   1      10.105022531624206      10.176406834253198      22.262832210410693
   268   3      10.371230992093626      10.067085332686176      20.206446954314661
   269   3      8.0990459143179461       9.973487387375382      22.287130963783397
   270   3      10.276077522420699       8.132422662799863      22.466180716618748
   271   4     0.21568335878780764      11.920976437021876    -0.11889386325852749
   272   2      2.0458868883920598      14.059288521936104      2.0709675983186644
   273   3        1.85947378593737       14.12357170417563  -0.0035598757364241631
   274   3   -0.026840882611446029      14.408740383938348      2.0530975548975796
   275   3       1.802104372795293      12.168552031982912      2.0601430209563474
   276   4     0.12122819749800104       11.89806854294115      3.8389219378513442
   277   1      2.0436843016615267      14.129112046788576      6.0089658679341946
   278   3      1.8983206696166388      14.282481185587407      3.9777497355022549
   279   3   -0.063117122228812467      14.422756537558028      6.0693859154479517
   280   3       1.773548982267686       12.08795542179077      6.1330584952145717
   281   4     0.18022925527498695      12.072142768021799      7.8643562588202558
   282   2      2.0250909706878568      14.079553219885913       10.03932630121372
   283   3      1.8792034782827829      14.093500851987706      8.1702484442718912
   284   3    0.028304071465040093      14.207282897836381      10.360216448282593
   285   3      1.8812493558947254      12.175176739863863       10.30569505599472
   286   4      0.1259546594292702       16.01869767528374    -0.18188365255434685
   287   2      2.0269809629849251      18.129634450900273      2.0116442972034574
   288   3      2.0649442770866502      18.464558360845746    0.041619859753927332
   289   3    0.014914722543801476      18.345645433118126      1.9786060240851786
   290   3      2.0581730325282659       16.21548144768617      1.8954931700245592
   291   4     0.13825018089646673      15.922962464140065      4.1126766760060685
   292   1      2.0205468887634912      18.208746215858543      5.9969031684850309
   293   3      1.9347249976166205      18.250293510400169      3.9826004168203055
   294   3   -0.054417069383970666      18.216348388752962      6.2906475051634869
   295   3      2.0335358621722723      16.198083644089031      6.2927638522690481
   296   4     0.22472015079062424      16.150552099471842      7.7181970207836956
   297   2      2.0535830472317014       18.14077802635186       10.14580268949058
   298   3       2.003268548988006      18.451035469807145      8.1942094847143423
   299   3   -0.029632481962243013      18.378807927913495      10.184062565750319
   300   3      1.9373129550538477      16.226299493291862       10.13727128367452
   301   4     0.17097263918302572      19.972481572179433    -0.12987174740732804
   302   1      2.0623818350610876      22.296567498908072      1.9617343770753128
   303   3      1.8831942704972315       22.37301170194894   -0.074802595931431973
   304   3   -0.041486496279365542      22.561332923420238      2.0790838070438564
   305   3      1.9664528150966856      20.271099478419821       2.208802354497954
   306   4     0.19238510828635075      20.090212995737957      3.8028717183107155
   307   2      2.0728264380407517      22.227397221412026      5.9530603424759221
   308   3      1.9396454679635264       22.43900100999813      4.0738865658340266
   309   3     0.01291856884038608      22.593349904231758      6.1394134613214719
   310   3      1.8387435788033062      20.338541909996195       6.059000429181931
   311   4     0.18023498262456228      20.005967136697908      7.8752110361831642
   312   2      2.1157045617492285      22.330672179728946      10.033143252753433
   313   3      1.9075691302970637       22.30607023731773      8.1276512704076538
   314   3   -0.046478563930811546      22.325708047881175      10.328147864175735
   315   3      1.9085566592291343      20.357853997187775      10.256788775290261
   316   4      4.3788268794431051      12.080298507532259     0.25149485015491002
   317   1      6.1191334535486348      14.160608241540446      2.0915811620381559
   318   3       5.974586426482813      13.985978959429231   -0.023406334097285417
   319   3      3.9584161009627774      14.135744139523714      1.9893175894618549
   320   3      6.0586817369664949      12.135688116620956      2.0484838701731753
   321   4      4.3488780812742922      11.760730134167151      3.6930676336843455
   322   2      5.9407167505302132      14.125046876563452      5.9625506871216922
   323   3      5.9741338437104696      14.383062556886875      4.1007805837611651
   324   3      4.0584456437046121      14.128264900671118      6.2601989180137716
   325   3      6.1445532276009427      12.210753232057677      6.0048403219611277
   326   4      4.2133385999277193      11.976493013419065       7.987339581743389
   327   2      6.1080926834077989      14.208481058748795      10.040926575072108
   328   3      6.1186576556190868       14.01102259836253      8.1664577497082576
   329   3      3.9663056531962635       14.15062394153516      10.211035776958585
   330   3      6.0148228308046399      12.224259180710819      10.430371720411211
   331   4      4.4568579472417662      15.849884061425989      0.0869104682713156
   332   1      6.0727785374674763      18.229561247972097      2.0104446787297618
   333   3      6.0031836175978146      18.372875112086259   -0.067029647335027503
   334   3      4.0127602719807651      18.414849963823158      2.0680932036010526
   335   3      5.8931776401993847      16.178596666509616      1.8829640533896908
   336   4      4.3509416379535564      16.210405303117195      3.7181096217901075
   337   2      6.0006646371172234      18.359821162707718      5.9975868328433677
   338   3      6.0589619626361477      17.932043854412953      4.0838524215475873
   339   3      4.0568053903332695      18.264360223914842      6.1767293105718375
   340   3      5.9502825908822361      16.152139661766199      6.3584553214462414
   341   4      3.8839334483536807      16.202814475019718       7.671668369543184
   342   1      6.0810241512448684      18.203189321577064      10.126185929812035
   343   3      6.0649300849175081      18.302799223909979      8.0604076439692562
   344   3      3.9679451447952938      18.404355389813173      10.132623804785426
   345   3       5.919981432610701      16.137733679019139      10.148013916665032
   346   4      4.0454509663440055      19.873853518950845    -0.10756181851119169
   347   2      6.0347647655935663      22.162009588933003      2.0088340140188818
   348   3      6.0430621091117471      22.366988683117587   -0.021799300373012576
   349   3      4.1013292728352999      22.131178094082347       2.091068822851712
   350   3       6.236360923619535      20.293593839660083       2.126078655104898
   351   4      3.8606391472418853      20.221579608423411      3.6595848700824667
   352   1      6.0558579687047489      22.240343874130698      6.0235384040974926
   353   3       6.115599029242289      22.578395145874389      3.9664021442546953
   354   3      3.9674925903266054      22.316138138424975      6.1052804488668517
   355   3      6.1522297267159241      20.225681190103924      5.9236013029385113
   356   4      4.1943372017387741      19.920224758400064      8.1195881885377279
   357   2      6.1732666152545814      22.142393381737236      10.081590787411994
   358   3       5.900494808889694      22.218342921022558      8.1554974715312358
   359   3      3.9913374631710292      22.302152242074719      10.211475522212634