(written by ASE)

1080 atoms
4 atom types

0.0      24.299999999999997  xlo xhi
0.0      24.299999999999997  ylo yhi
0.0      24.299999999999997  zlo zhi

Atoms # atomic

     1   4     0.13642895380668998    -0.32030615783633276   0.0044602030256378888
     2   2      2.0611105996846697      1.9621431263877684      1.9473097443571683
     3   3      1.9497646218779545      2.2395515012049865     0.01457702076094331
     4   3   -0.030466671890668248        2.05193307082035       2.060107679245764
     5   3      2.0908030614547592     0.10454191208893501       1.996085102656219
     6   4     0.16089100160226585    -0.30271608900452923       3.946792210334221
     7   2       2.087820785639757      2.0651558359879876       5.972536164443925
     8   3      1.9272386274573672      2.1262958384164699      4.0428826950157069
     9   3   -0.053191618897249056      2.0047635240075676      6.1943846206345166
    10   3      2.0146356155488343     0.11121185475155664       6.212118398800996
    11   4     0.21540868753218959    -0.23552845294209471      7.9599682947941277
    12   2      2.0596006034818251      1.9966902102070241      10.024697720295633
    13   3      1.9164953627709396      2.1923251192517883      8.1331679792639786
    14   3   -0.064709572111800381       2.174059044132814      10.254898495457478
    15   3      1.8517533707098679     0.10641815800267419      10.145347487852661
    16   4     0.26932167981101635      4.1217942667077248    -0.16445537878430738
    17   2      2.1770123240437163      6.0862015044889333      1.9966014731123078
    18   3       1.841289313921185      6.0487640729935022    0.046320322758710029
    19   3    -0.12271692988959867      6.2726841137464087       2.058569263883391
    20   3      1.7413912781804206      4.1164255472959708      2.0754239924916948
    21   4     0.25440067825853135      4.1533513202949051      3.9474595169644116
    22   1      2.0828870489614468      6.0730584965920809       6.014731064521345
    23   3      1.7894464202510678      6.0843910176546547      3.9882752317537804
    24   3    -0.11403382861973305      6.2319549744618659      6.2522096386788197
    25   3      1.7645081215088414      4.0310837401402466      6.0846463885491104
    26   4      0.2271283127758455       4.166177825397023      7.8642075030221239
    27   2      2.1739936914920124      6.0929325920803787      10.163309730916231
    28   3      1.8766273276765397      6.0159563882481777      8.2112595609815457
    29   3    -0.12680772587987993      6.0916925342758397      10.248486028910637
    30   3      1.8826752726026383      4.0775109469888982      10.304727293585245
    31   4     0.31760204914247986       7.976845129895823    -0.16079187629507263
    32   1      2.0206753091969683      10.075562414474378      1.9684755499276845
    33   3      1.9413242472695502       10.19735179912321   -0.077439826743553181
    34   3   -0.099675430150283628      10.119641555836203      2.0581132420591799
    35   3      1.9689950843646795      8.0378361353633903        2.04146507298793
    36   4     0.31961162576236446       7.991797476155778       3.888478500549597
    37   2      2.1510126817724897      10.069373072725032      6.0664695889167453
    38   3      1.8268052011268952      10.059045872216641      4.1273005649962826
    39   3   -0.087283517220334866      10.057663455186832       6.262748509330172
    40   3      1.9530650072701581      8.1340416718964921      6.2431140639803528
    41   4     0.29698378395161096      7.9206546522930994       7.950731037995169
    42   1      2.0535049985370946      10.061357381942189      10.138895008083876
    43   3      1.9802137861638127       10.30019282729512      8.0939978350517716
    44   3    -0.11692993521849172      10.253221912122834      10.213573657233884
    45   3      1.8485896516252893      8.0333232522917086      10.163036712996705
    46   4      4.3691541319540859    -0.02332440668347947    -0.15569643146471276
    47   2      6.2559510991378406      1.9917020000872336      1.9985633841197681
    48   3       5.880128922609658      2.1664927143915165    0.048189122730924419
    49   3      3.9384763003074812      2.3522746095086084      2.0041479532899662
    50   3      5.8168077897283466    0.062658500664008909      1.8881475897210684
    51   4      4.4225870401643306   -0.053162532179968636      4.1744270546655855
    52   1      6.1118609294388762       2.025097973291011      6.0152594212945925
    53   3      5.8556114206309822      1.9265617762000531      3.9615714719726713
    54   3      3.9616664754361754      2.1391870566893516      6.1324110899624724
    55   3      5.9446350399449033    0.030516455392566113      6.2043600335689986
    56   4      4.3879013678917618   -0.025473589836629798      7.8676734189984465
    57   2      6.2433022523020707      2.0292179601902651      10.117881269426178
    58   3      5.9331572847747562      2.1617322500411444      8.1886109174946267
    59   3      3.9356408796951476      2.1107153627041213      10.230390497163995
    60   3      5.9414268133606765    0.036664718523899964       10.09085260303288
    61   4       4.292822996823161      3.8934649123401606   -0.029977201072013869
    62   1      6.1223516568266421      6.0260570162637714      1.9346751956923101
    63   3      6.0148464647580475      5.9703000177141714   -0.072099063637983199
    64   3       4.035727185734105      5.9408354747725394       2.037083203520881
    65   3      6.1413889419781134      4.0016642105751226      2.2158327229046941
    66   4      4.4248037659350814      3.9818789792876079      3.9285410655755175
    67   2      6.1198192378025578      6.0219588681150835       6.008821128050001
    68   3      6.0636128346959195      6.1802430316264569      4.0696849136510078
    69   3      4.0792496818780002      6.0543591235638559      6.1952539149782417
    70   3      6.0368763929692566      4.0451119094936754      6.0081004457162983
    71   4      4.3934168288798299      4.0746251096976227      7.9160692714691603
    72   1      6.1541497766179702      6.0120590615516081      10.096873277092794
    73   3       5.949535698489373      5.9208353944273027      8.0941036700840101
    74   3      4.0380214857353369      6.0894227106650902      10.259520805814866
    75   3      6.0098675878861076      3.9869221987832413      10.371243463386259
    76   4      4.4346901851198064      8.2764099532810622      0.1885239777422808
    77   1      6.1260157897559928      10.101366167804091      1.9409092709835174
    78   3      5.8835670905598558      10.213265116279523    -0.10391891799203375
    79   3      4.0297391934534925      10.089073073580241      2.1299326739291993
    80   3      5.9733795924530604      8.0639592907473716      2.0102604459692204
    81   4      4.3574420189711889      8.3021171283068309      3.7155030594833698
    82   1      6.0383395208991804      10.062441001673848      6.1195197552834966
    83   3      6.0594139557848656      10.076902673617775      4.0584128624478133
    84   3      4.0264461729043273      10.234165014806873      6.1410136294980013
    85   3      6.0423860429173839      8.0484033165425313      6.3278495467827991
    86   4      4.2986129042379702      7.7463052775660719      7.9056081337208166
    87   2      6.0886171615280613       9.918233998130658      10.161782354402893
    88   3      6.0433082689172188      10.408834001311746      8.1902856796536163
    89   3      4.0923952064390505      10.326089635934121      10.111570331691624
    90   3      6.0469249863632104      8.0695762123875721       9.993693616936639
    91   4      8.3507627336592876    -0.23288378613739347     0.04679169211613117
    92   1      10.159695415510562      1.9566703751296588      1.9828880340186481
    93   3      10.172358883887291      2.3067526333808033   -0.074130810201014613
    94   3      8.1041308196477395      1.9174596961964308      1.9534463215369491
    95   3         10.217801262801   -0.052090209328836422      1.6235079742816114
    96   4      8.1240849218269204    -0.36319805209139172      4.1402616523330185
    97   2      10.115614053680648      1.9928028874140387      5.8715221768800632
    98   3       10.17390520295435      1.8324387575893017       4.009678086637904
    99   3       8.146387615713012      1.9473470327853597      6.2093591996360278
   100   3      10.200696630045176    0.037514220910111154      6.3223346381026539
   101   4      8.0505078771136951   -0.089738023080711021      7.6523055979353911
   102   1      10.152450154158437      2.0094714728165655      10.065002992665219
   103   3      10.145134236273154      2.3494142648113696      8.0799449928559017
   104   3      8.1071120369346232      2.0927210740705857      10.181112560085545
   105   3      10.156152705145008   -0.038407056688762577      10.040891924336359
   106   4       8.454530247476244      3.9183759012682513    -0.23562480439943509
   107   2      10.206677367120548      6.0864255137771242      1.8814851608386824
   108   3      10.002467120560578      6.0264860281636343   -0.024027816982845444
   109   3      8.1673246544800389      6.1494376528322405      2.1971002209773149
   110   3        9.99638240658585       4.085285260984608      2.1781196085129997
   111   4      8.2026332982188332      4.2567213767846859      3.7205647360924727
   112   1      10.082561104403322      6.0202594767398612      6.0123805215689572
   113   3      10.264785454662279      6.1423153013967005      3.9846939046293954
   114   3      8.0644899309585938      6.1250673023776141      6.1169183127539144
   115   3      10.082014791028323      3.9892738149317775      5.9192340088439677
   116   4      8.2886479929944183      3.8256690289313546        7.79524592964595
   117   2      10.137547291035824       6.074805987208812      9.9618974766874366
   118   3      10.140483003477307      5.8281865677840621      8.0916054754225684
   119   3      8.1905067623713421      6.0145042553320565      10.338328011081234
   120   3      10.178174919045839       4.079576413570158      10.440869500557888
   121   4      8.3404775593081766      8.0060334158830191    -0.42555579891648054
   122   2      10.008524177443643      10.172825522894852       1.944963698006352
   123   3       10.27853776253251      10.181430299428735    0.023241772439399171
   124   3      8.1403184409212788      10.010310170278014      2.0113086852850519
   125   3      10.281835458273466      8.1176486420971603       1.949817713140223
   126   4      7.8147241540700056      7.9918191026627721      3.6492654353692529
   127   1       10.06402099934677      10.100848708987561      6.0277861042056102
   128   3      10.238845737686308      10.076647239033612       3.964092672851415
   129   3      8.0696787857626724      10.145358803172412      6.1755696447652983
   130   3      10.228603732491647      8.0635008441318483       6.175381241374807
   131   4       8.191614780943322      8.1168786354136806      7.5595708949170675
   132   1      10.103286258584196      10.059562239107276       10.12492202739586
   133   3       10.18380467663466      10.208773372096887      8.0980523289490662
   134   3      8.0251192559082938      10.284542024156368      10.145815777125165
   135   3      10.237939416136189      8.0289367016238362      10.016897185249839
   136   4    0.093696752523767995    -0.17579811137969995      11.893866372525316
   137   2      2.1112896233041152      2.0410852305526332      14.116560369788898
   138   3      1.8740692702394306      2.0388331259846773      12.206481163428709
   139   3   -0.094686653107318441      2.0270629740977744      14.385523820966581
   140   3      1.9730947728450132    0.067508912990506556      14.385006348086012
   141   4    0.079382176987054784    -0.16192723783818236      16.020864848130582
   142   2      2.0364498249241358      2.0031456329331081      18.170569856691966
   143   3       1.920610828064383      2.1890431857713697      16.254737102801087
   144   3     -0.0650669506539506      2.1910203307625729      18.305010529158629
   145   3      1.8800529634472685    0.089932160314046605      18.254336939411385
   146   4    0.095233757015319956    -0.25229722085152889      20.222352068294999
   147   2      2.0979817900877085      2.0381776499789312      22.202026235466086
   148   3      1.8889572217318495      2.1072432163535093      20.274349849189104
   149   3   -0.067858629842888055      2.0225437084344629       22.38383412003677
   150   3      2.0558598904191534     0.11324380807585624      22.364305864266747
   151   4     0.25512102213065918      4.0872469816801109       12.06911224122935
   152   1      2.0701008394104372      6.0330348421093509      14.170603834154811
   153   3      1.8074979676045284      6.1344753900447158      12.151900441069269
   154   3    -0.15712206162960246       6.203105986514057       14.35228015653311
   155   3      1.7647164355026732      4.0030126717555126      14.185844865068722
   156   4     0.21769865517793024      4.0777801500772357      16.007683337076124
   157   2      2.1535955907151054      6.1156727461862959      18.217576344608208
   158   3       1.878983695970371      6.0429720416051396      16.266737934945223
   159   3    -0.13130326855839292      6.1150800868596198      18.233534284487764
   160   3      1.9146544811774175      4.1011828441991378      18.355076269983787
   161   4     0.29834764303081612       4.138280974227329      20.233152246882561
   162   1      2.0811794571011588      6.0714230537415821      22.260464529021021
   163   3      1.7936454671029891       6.139470506730377      20.208339767913003
   164   3     -0.1331971738407412       6.262234327269856      22.369573881522616
   165   3      1.7397249767433627      4.0435201322084007       22.25483357282673
   166   4     0.29625736382537543      7.9810986140441544      12.034334743749723
   167   2      2.1188767397056347       10.03535937559457      14.213066190199607
   168   3      1.8330938130117855      10.124454535539291      12.255326348364965
   169   3    -0.10599845485259198       10.17480328934796      14.310021904245589
   170   3      1.9158345591820181      8.1373078548239786      14.279245203947967
   171   4     0.27667535623732498      7.9170654190023306      16.148497746333145
   172   1      2.0322051501426559      10.107415976893737      18.219498588572879
   173   3      1.8741456757661616      10.273690497028761      16.162110308667891
   174   3    -0.13270792223102726      10.327417716725439      18.205118999864428
   175   3      1.7988677823645145      8.0581241584527916      18.213827388699883
   176   4     0.32574577545244232       8.038877762510003      20.196920047300011
   177   2      2.1686630353181444      10.099398367059889      22.249587899266349
   178   3      1.7323321103352702       10.11036353712934      20.313113751302424
   179   3    -0.10386778455226668      10.148352027996825      22.451820185374221
   180   3      1.9078024510914926      8.1629781912097776      22.288378780255364
   181   4       4.419642455622645   -0.066796984299143936      12.087845470169919
   182   1      6.1219765538227122      1.9690188141070315       14.16245678731612
   183   3      5.8877099553759811      1.9064414102336709      12.119678661951985
   184   3      3.9705539079950549       2.130433965382474      14.215169945227023
   185   3      5.8901250321247156   -0.048725499736254757      14.299019480266736
   186   4      4.4388577443958548   -0.010449531295618391      16.229695557104041
   187   2        6.27334436857989      2.0213959213836095      18.252140234932508
   188   3      5.9077009353725689      2.1164982539210384      16.272963949846737
   189   3      3.9262224999779614      2.0971325072389901      18.268105139037832
   190   3      5.9371693729810655    0.081855392828300108      18.182053872458724
   191   4      4.4298512803004817   -0.071369769027210705      20.240884499914607
   192   1      6.1385064949934334      1.9763612026278867      22.272680359741912
   193   3      5.9126434462902031      1.9949304227404978      20.205351140430636
   194   3      3.9770193366971682      2.2534704881076748      22.324594531213819
   195   3      5.8486827756049218   -0.030821044637226836       22.35723330581212
   196   4      4.3875244769346242      3.8631276808535095      12.087657309356626
   197   2      6.1473398333043363      5.9351013999989268       14.18291660720922
   198   3      6.1231098398046653      6.3088760752690538      12.217135698210624
   199   3      4.1089683706727449      6.2300839594403596      14.110608760266825
   200   3      6.0686453715742887      4.0331602332308929      14.065377307512465
   201   4      4.4143595344293676      3.9523494170699074      16.275799589400435
   202   1      6.1342539555148683      6.0559555664069045      18.198696008856281
   203   3      5.9175609964125764      5.9457896346423125       16.16864441326581
   204   3       4.024688430436405      6.1646737637266025      18.298110141392421
   205   3      5.8874204321082955      4.0046581713682503      18.300297365896068
   206   4       4.406290903966223      3.9382262904469516      20.213948912330988
   207   2      6.0537125752451244      5.9840001606011146      22.323333855812454
   208   3      6.1141217429212684      6.3749191690569749      20.236721023137992
   209   3      4.0972215956615177      6.0714896299273313      22.064496268549615
   210   3      6.1601415691644261      4.0835219463180303      22.066241654432424
   211   4      4.3427378977086359      7.8555422871406453      12.307724064983736
   212   1      6.1036849775861439      10.121644128335802      14.150123808647585
   213   3      5.9275663079762682      10.015944387435361      12.124779278349026
   214   3      3.9964166774151826       10.22417183744485      14.236073525860366
   215   3      6.0511526924768839      8.1032773463469354      14.456016839801981
   216   4      4.3370583980223154      7.8421337378883242      16.043799689410076
   217   2      5.9059195467402068      10.050409090215622      18.208301328575935
   218   3      6.0803874212478481      10.523572467722508      16.254701709755729
   219   3      4.0489427934116824      10.179868661252682      18.203138803549589
   220   3      6.1018864688349952      8.1689777425391235      17.919175048667626
   221   4      4.2684404865148071      7.8345283954262044      20.388769687576932
   222   2      6.2235565747319077      10.162860436777153      22.231037387666206
   223   3      6.1017887910379915      9.8785698902292989      20.222852094399904
   224   3      4.0275979296865136      10.163953106078901      22.134859345302527
   225   3      5.9071050901888675      8.1300310684327499      22.395259060424674
   226   4      8.2741838545108539     -0.2249036646316106      12.058555460507277
   227   2      10.182125176121341      2.0400054326443877      14.048137932346345
   228   3      10.129092881694834      1.8057492514288114      12.173515450806072
   229   3      8.1729106499026685      1.9202732782396352      14.426941125272725
   230   3       10.17257870151998   0.0092658156334568878       14.47987121726487
   231   4      8.3625597742443976    0.055073260429905485      15.980844769238201
   232   1      10.193740966235355       1.960827686083237      18.230116938846535
   233   3      10.182480520868195      2.2668041592996189      16.213496741803837
   234   3      8.1330963536611325      2.0833353579678597       18.19213340068562
   235   3      10.128154732022365   -0.056722370304131381      17.997742489480551
   236   4      8.2240261252669509    -0.36178287872761294      20.220018438371408
   237   2      10.152958664248041      1.8523583431376249      22.246238920554141
   238   3      10.187220799181924      2.0084761307829484      20.276760144740592
   239   3      8.1674283826092342      2.0571201264840293      22.252438032148575
   240   3      10.205846852294403   -0.024956509593695182      22.470834125021749
   241   4      8.3489076336509012      4.0798498944141093      11.901432960038683
   242   1      10.179752211469536      6.0361918574796212      14.185694861919917
   243   3      10.124177713179325      6.3434834029561591      12.188453354919973
   244   3      8.0891710312722616      6.2213092632722828      14.257066222290744
   245   3       10.02098897483121      3.9948256090752317      14.076868120123079
   246   4      8.3851577471027117      3.7599010633672996      16.023550330145145
   247   2      10.049659451717185      5.9601660490281514      18.194940701696275
   248   3      10.257609032855431      6.0686821684028267      16.265894416487324
   249   3      8.1651354761898034      6.2102579657393635      18.213844570578274
   250   3      10.173455947535677      4.1029354864690051      18.405663939323897
   251   4      8.3466353293155393      3.8042561497171543      20.444919793863168
   252   1      10.156492236335476      6.0506034083717628      22.197408968852905
   253   3       10.12646923594977      6.3948258089205057      20.166638920001212
   254   3      8.0460809084380269      6.3325461302475556       22.19607111505908
   255   3      9.9404660213213312      4.0652356380002956      22.134008654682667
   256   4      8.2359443383542335       7.730851413702319      12.075644529380028
   257   2      10.039630955526381      10.157958166167813       14.06756838381688
   258   3      10.121511564712074      9.9521603762835138      12.205509440252904
   259   3      8.1478778814487942      10.186697911502069       14.38354329627834
   260   3      10.166985105011378      8.2237300125128971      14.509219932677066
   261   4      8.0677785996681113      7.9701382182741582       15.93411969078393
   262   2      10.009441598856709      10.112793172605024      18.222152023969972
   263   3      10.223879729059043      10.433728531672033      16.287648056692735
   264   3      8.1304448703775609      10.297334564979037      18.193227324332067
   265   3      10.226960963574342      8.2167351718779322      18.092408492632241
   266   4      8.0402270102836386      7.7686475526403953      20.204544422638261
   267   1      10.092299751780551      10.208831278209265      22.232994695779411
   268   3      10.336764756625447      10.119651740586688      20.192198521365427
   269   3      8.0851664519753985      9.9790019039279123      22.327711203480437
   270   3       10.26476278861645      8.1435861291184022      22.413603578664944
   271   4       0.233448133544188      11.926443923932592    -0.12708191890508996
   272   2      2.0428627587481785      14.043442603184666      2.0607056445237748
   273   3      1.8653494665586681      14.103404795111592    0.033509105218285234
   274   3   -0.042847043434682125      14.334938104236652      2.0868087423845303
   275   3      1.8663893952947628      12.147439108459286      2.1227135937653761
   276   4     0.29335347330695344      11.940095518669661       4.016018454732543
   277   1      2.0326850219502188      14.079712775186691       6.039452703457914
   278   3      1.8965035408964146      14.256986249540812      3.9993646850997009
   279   3   -0.084408023340336244      14.405025756073302      6.1154222347955685
   280   3      1.7170209458713279      12.063742656676464       6.029193524487968
   281   4     0.25767507816051732      11.934219953700813      7.9428610870416927
   282   2       2.057231213650617      14.067528281972853      10.030533390148957
   283   3      1.8786032145604752      14.080887958855424      8.1600957098610678
   284   3   -0.039853060040533503      14.242236931133782      10.300895819079249
   285   3      1.8975956834617236      12.199402268376581      10.303155052080811
   286   4     0.13729819728919695      16.060889957404743    -0.21237903541866471
   287   2      2.0227969807332071      18.133360328144082      2.0203887408234382
   288   3      2.0822767465438821      18.461231046547429    0.064705642556905807
   289   3   0.0054703973390227718      18.351446670003138      1.9613256901559539
   290   3       2.011573715132748      16.209908447210967      1.9488553335499372
   291   4     0.35174418238909233      16.032043346731342      4.2223039752168869
   292   1      2.0075312346996368      18.220216414500005      6.0219990421403597
   293   3      1.8474134380719054      18.205287153196206      4.0090926564747962
   294   3   -0.056750857787959914      18.229915126416341       6.331098376166949
   295   3      1.9963382451359546       16.18983334247303      6.2322922386265498
   296   4     0.22279239811673485      16.136184137430803      7.7560509017864323
   297   2      2.0289175271431859      18.162788876651437      10.172229638299152
   298   3       2.055912503078217      18.462162404545222       8.162114840447348
   299   3   -0.020341374100701987      18.443275583999721      10.086286931233717
   300   3      1.9204152647626056      16.210607410875198      10.084252528484411
   301   4     0.13710692102357364      19.966210269485977    -0.10851110546110447
   302   1       2.056912251766815      22.300390403282023      2.0053172598392046
   303   3      1.8871532014141763      22.355824039692575   -0.055312283806048988
   304   3    -0.04048488572194682       22.54504242921692      2.0958183530203223
   305   3      1.9695196395520835      20.257456637022354      2.2515111973173996
   306   4     0.20517237975830552      20.096937766932019      3.8633868185424718
   307   2      2.1218400268712965      22.202919909247591       6.079690922160208
   308   3      1.9349928764191544       22.44519716385695      4.1243722061226693
   309   3    -0.02489824475722114      22.588175840367157      6.0790859958160599
   310   3      1.8852548199707391      20.309869770405271      6.0310468350591186
   311   4     0.18272841290561026      19.997593831337184      7.9376592865395699
   312   1      2.0591562172327507      22.314593975330787      10.083269256128688
   313   3      1.8728554460909439      22.337204970492053       8.048496740708746
   314   3   -0.063444432860873368      22.342576634073172      10.318280839045869
   315   3      2.0269218978051944      20.269079694303798      10.332266218314173
   316   4      4.4061601499455376      12.167866437995148     0.20022307982611845
   317   1      6.1245988799161655      14.159123768712368       2.113692379830757
   318   3      5.9651070029751452      13.980293850054499   -0.016491669730706243
   319   3      3.9585943118309235      14.150994650685753      2.0041532776746713
   320   3      6.0322855818397683      12.134017286118468      2.0419724535415837
   321   4      4.3661366246966722      11.784241659376384      3.7199433168830636
   322   2      5.9148081042383227      14.093056186620402      5.9954928119958808
   323   3      5.9825090756519446      14.398377799492826      4.1180936733912201
   324   3      4.0454907526252262      14.134098464349387      6.2309812281608989
   325   3      6.2030515928755667      12.200292779495472      5.9461961025593082
   326   4      4.0999071806880556      11.768108314399477       8.177571094625355
   327   2      6.1367740215652793      14.198896906867331       10.02064015984916
   328   3      6.1223510020002481      13.995017940520961      8.1468259297493617
   329   3      3.9709346442115279      14.151992927767916      10.221099387032538
   330   3      6.0537784061596351      12.247354488921282      10.451370027955114
   331   4      4.4182802050306975      15.854797873122758     0.10818198812819345
   332   1      6.0470736811679267      18.225742774496538      2.0530086874037452
   333   3      5.9997122463684365      18.428313316172563   -0.029092367015168135
   334   3      3.9958127642199264      18.409390327001621      2.1237834926346646
   335   3      5.9014374337948228      16.179923190879812      1.8749402379024949
   336   4      4.3769406824585051      16.191451131069737      3.7646992329917479
   337   2      5.9933860676932742      18.379591963785849      6.0313912125800604
   338   3      6.0761827625681422      17.905587386755251      4.1064078159664623
   339   3      4.0462672458316788      18.285057701104535      6.1605342494462656
   340   3      5.9429750724487684      16.149049096530725       6.362385175432828
   341   4      3.8741466529581778      16.190348467402824      7.6592576396630054
   342   1      6.0818762517486773      18.228878825208433      10.094755309245958
   343   3      6.0610461866387331      18.304227099099027      8.0450498628030029
   344   3      3.9840436846462342      18.372441544656798      10.140470851417398
   345   3      5.9049180389727658      16.139685677928558      10.067178072211735
   346   4      4.0374918220495832      19.904334720718161   -0.043428376684984532
   347   2       6.028282700401923      22.169545645811141      2.0253156336670171
   348   3      6.0315526235515424      22.355384778672214   0.0074233799520944978
   349   3      4.0978365571031894      22.122587144800899      2.1198446538970881
   350   3      6.2261348405910777      20.293651961510069      2.1415680773123467
   351   4      3.8403340879978942      20.261585354697871      3.7199458775013019
   352   1      6.0681077786017683      22.258806895629558      6.0286056468018776
   353   3      6.1192337145020588      22.581727644822312       3.974719772850456
   354   3      4.0093566561128569      22.322839314326604       6.074894417695071
   355   3      6.1948412624983318       20.23880672217004      5.9079467254481886
   356   4      4.0083390163359551       19.89665254132581      8.1155145284630361
   357   2      6.0615371507955276      22.159174431537416      10.031254390746136
   358   3      6.0159848097164534      22.259261837600551      8.1393317032645509
   359   3      4.0963651232312754      22.254228638039429      10.318145306670786