(written by ASE)

1080 atoms
4 atom types

0.0      24.299999999999997  xlo xhi
0.0      24.299999999999997  ylo yhi
0.0      24.299999999999997  zlo zhi

Atoms # atomic

     1   4     0.14365854359314223     -0.2947001819976352   -0.049897816447825538
     2   2      2.0665887176207516      1.9454208331381881      1.9456541028539176
     3   3      1.9855297487604959      2.2352594258214009    0.018437776223470877
     4   3   -0.031882562671084726      2.0488348295423235      2.0411901719239265
     5   3      2.0555608823514326    0.080758021991605533        1.97617684070865
     6   4      0.1680211644344792    -0.28931503168367079      3.9440922792597233
     7   2      2.0729066486052723      2.0551265790912634      5.9684848091502234
     8   3      1.8868316124970426      2.0671128254247941      4.0499348833590263
     9   3   -0.052216515917482803      1.9713386126647621      6.2544901977686269
    10   3      2.0308586643906645    0.077027964138413757      6.2296080535702583
    11   4     0.16878704164141772    -0.25111397787427014      7.9515981084063387
    12   2      2.0222322192073774      1.9901318228970124      10.021656097531352
    13   3      1.9596708723707539      2.1822333815713262      8.1365104838774585
    14   3   -0.063607605440837212      2.2511375771150366      10.207111282230601
    15   3      1.7979236275734312     0.09479559450172742      10.161656509989337
    16   4     0.25633231527287781      4.0803356289172603    -0.17295579503359662
    17   2      2.1707539419123494      6.0802785222056173      2.0057324963604701
    18   3      1.8271497507780603       6.015654382894799    0.059032997896344634
    19   3    -0.10461303706596199      6.2674544721950367      2.1016259499398435
    20   3      1.7705402612573971      4.0920204929801969      2.1111823225496105
    21   4     0.25054409729884236       4.148190306031978      3.9331228837877852
    22   1      2.0745674397765606      6.0573076740247496      6.0235817966160266
    23   3      1.8079551535452469      6.0781858038746321      4.0036935251673818
    24   3   -0.099283988701602433      6.2486416586593991      6.2353397312640526
    25   3      1.7517025162514246      4.0071877558640994      6.0720057507218437
    26   4     0.19106626854082256      4.1429144249790184      7.8503883772106633
    27   2       2.156340379067951      6.0933010565171823      10.139881768942068
    28   3      1.8774319788783831      5.9903899299834755      8.2031880234662946
    29   3    -0.11050213202147631      6.0350020099283199      10.266163406129198
    30   3      1.9612500735715992       4.068376765227244      10.347759840193042
    31   4     0.24145850047052245      7.8734571567671381    -0.14556792479085304
    32   1      2.0011826895026754      10.058441859446562      2.0003319730330009
    33   3      2.0478652082535924      10.351623996070783    -0.05110154013755757
    34   3   -0.073032748800868935      10.112781522460255      2.0296069874321661
    35   3      1.9996576468445766      8.0295311851791666      2.0497721022315369
    36   4     0.32001904605438874      7.9640747431469121      3.9036663350286784
    37   2      2.1285475731508576      10.072495940056376      6.0676235569827357
    38   3       1.837712309835468      10.070352602407983      4.1242666204786067
    39   3   -0.066428648818513902      10.038217937661869       6.284964661723583
    40   3      1.9889016566284305      8.1324008942834993      6.2611367180915467
    41   4     0.26953945219241765      7.9339237699145428      7.9276327196842598
    42   1      2.0462468818631656      10.069226564631744      10.125623302653239
    43   3      2.0231294442187173      10.332155850032704       8.093614468738723
    44   3   -0.092331802592706402      10.304306275330001      10.187120004931323
    45   3      1.8195196214612779      8.0370868965328803      10.136504501744112
    46   4      4.3808774608169987    0.012669893152852767    -0.14210504547136923
    47   2      6.2618472765796946      2.0022598974041448      2.0057716342181098
    48   3      5.8438753847236233      2.0918974663876644    0.041603992758914306
    49   3      3.9383937985517337      2.2850463735372202      2.0393310529621926
    50   3      5.8310827074602205    0.046066398291995547      1.9182628082709223
    51   4      4.4558404651286789   -0.020017320746006456      4.1810079098034461
    52   1       6.135082266679035      2.0144484526819006      6.0176961354985909
    53   3      5.8906329103203747      1.9357240855809414      3.9649692102845937
    54   3      3.9520870224231541       2.107573345731887      6.1050117235157275
    55   3      5.8865556395916325   0.0089218571551046462      6.1470590224478912
    56   4      4.3998413401461889    0.098865950960886947      7.8651216832966293
    57   2      6.2468378654715879       2.058858334909778      10.133509830003058
    58   3      5.8741273375099103      2.0551635613597039       8.187054835543929
    59   3      3.9104097560994258      1.9933243776298799      10.290149482149678
    60   3      5.9786741624750945    0.008837638158622969      10.134375308052643
    61   4      4.3206177396911931      3.8928308087710115   0.0012591270495906791
    62   1      6.1361597742785179      6.0095572990391712      1.9473407426868781
    63   3      5.9646776419671292      6.0165815229472592   -0.072299585955274956
    64   3      4.0329764528797192      5.9415941444292706       2.019314078336639
    65   3      6.0768821930570613      3.9809427969248494      2.1278849344580184
    66   4      4.4363868911702431        4.01059051837463      3.9452550582813561
    67   2       6.144401354427111      6.0320510424132978       5.981954437964335
    68   3      5.9891756050709031        6.10785864161313      4.0508224210559431
    69   3       4.069327562596424      6.0214052459566201      6.2069299324938463
    70   3       6.038665708333423      4.0370167351961816      6.0425749578247672
    71   4      4.4129758794171732      4.1009189344713475      7.9084638179433266
    72   1      6.1527318369181083      6.0025499093528882      10.078833685649347
    73   3      5.9541268033008157      5.9573276805511757      8.0744046187392442
    74   3      4.0295375780721958      6.1379781347760716        10.2611929555458
    75   3      5.8990385756420061      3.9775838443537226      10.257218364577723
    76   4      4.4808789681770564      8.0695631044411158     0.11172149396392123
    77   1      6.0758720425251767      10.106547892582368      1.9380673225417233
    78   3        5.86000360405757      10.227530203906117   -0.096940578858871362
    79   3      4.0113426012388631      10.250493650614942      2.0744826726925791
    80   3      5.9494491512677348      8.0586421591994561      1.9966665833712358
    81   4      4.4062448896491437      8.2445352626871884       3.740628802124029
    82   1      6.0501819574308024      10.073588563462758      6.0710832480721413
    83   3      5.9976182399858766      10.073360615746953      4.0334355302340974
    84   3      4.0168574407802948      10.259897043933732      6.1122869369907438
    85   3      5.9995275122624081      8.0398504543160598      6.2541279269481826
    86   4      4.2732688268276391      7.7375825641906602      7.8557134729623481
    87   2       6.066900960198061      9.9057509296053396      10.125247336879227
    88   3      6.0106979327186041      10.357586553028966      8.1709614571013702
    89   3      4.0972872839461161      10.294873700117394      10.146609405570507
    90   3      6.0809317413249797      8.0595519226792192      10.062319127420679
    91   4      8.3730503583409082     -0.2145649489818911    0.082981259856449247
    92   1      10.157791985054672      1.9707498875457523      1.9897273616866025
    93   3      10.188396221413582      2.3183124468218961   -0.074567543622328633
    94   3      8.1051853134706651      1.9106798760290804       1.924019937058236
    95   3      10.240157909037263   -0.032952606677432904      1.6568385616654611
    96   4      8.1466692235443059    -0.32732490628762845      4.1127420855749284
    97   2      10.126978186576242       1.998441166941608      5.8801227214759129
    98   3      10.161114116707424      1.7998576540406224      4.0192207899375685
    99   3      8.1528955809479644      1.9019977734791094      6.2394150433159794
   100   3      10.202335738127875    0.030888622992754609      6.3368084952971762
   101   4      8.1547704985364202    -0.12243937598620758      7.6652966424063607
   102   1       10.16838544761225      2.0149594594459868      10.060388022238522
   103   3      10.160578730069512      2.3530552696765779      8.0794881108390637
   104   3      8.1036158835157011      2.1096693318860398      10.139376495142026
   105   3      9.9969498201071954   -0.038177749289715707      10.061797189914119
   106   4      8.4676007122770116      3.9350856682380684    -0.21125723367433991
   107   2      10.207152644153417      6.1012097917560411      1.8656344394345088
   108   3      9.9839372956023045      5.9523855396792529   -0.037791025514297895
   109   3       8.157066559824063      6.1110163821961585      2.1657412130021858
   110   3      10.007335855879168      4.0520723798685285      2.1928788456830994
   111   4       8.296590316243293      4.3288331163036045      3.7777667381253575
   112   1      10.099680593474238      6.0069627144948026       6.006584165104254
   113   3      10.237444507008428      6.0915731903599779      3.9758040643242021
   114   3      8.0715877701810452      6.1185932914580459      6.0815836412976951
   115   3      10.015147114318125      3.9791575070976015      5.9191833314390427
   116   4      8.3084952616110375      3.8219501529940318      7.7999113034265193
   117   2      10.133287334773589      6.0709295170521003      9.9535744645820312
   118   3      10.134572311020108      5.8246672091244722      8.0876001242285174
   119   3      8.1854889382596507      6.0021775158059194      10.310666439766297
   120   3      10.214260667017353      4.0754776715832346      10.444984003559211
   121   4      8.3571936925552652      8.0060241331618585    -0.38940138246117501
   122   1      10.140462569283979      10.094892341717346      2.0094086337561818
   123   3      10.181310236211639      10.311568766407385   -0.015622845619725226
   124   3      8.0895543043365397      10.119518348890926      2.0125163992473492
   125   3      10.242158252658031      8.0538146700206941      1.9203716321744948
   126   4       7.912111964307651      8.1353040858847709      3.4534760993888578
   127   1      10.050310255618532      10.094140043706629      6.0565720413087325
   128   3      10.199304128112319      10.089301896397945      4.0348165545391828
   129   3      8.0587939673201934       10.09835237398315       6.211184659165145
   130   3      10.232407049721811      8.0489455591070733      6.1884426061656468
   131   4      8.1850322017306159      8.1166545909253482      7.5332354781788347
   132   1      10.105242467227585      10.068946969715745      10.119243513928145
   133   3      10.215324626152963      10.224811251551321      8.1125679784218221
   134   3      8.0226708661078963      10.310881775484283      10.096751398702281
   135   3      10.222689831097181      8.0254515546633449      10.055451379904783
   136   4     0.10832538398211165    -0.22078818453066301      11.937627061795126
   137   2      2.1044448754376943      2.0217868239498737      14.117195757842921
   138   3      1.8191816327164054      2.0111803397392065      12.215269585976676
   139   3     -0.1104120821833889      2.0301394379187268      14.437323851938833
   140   3      1.9275177832738033    0.064306206013446721      14.403698562302955
   141   4    0.064428481494379394    -0.16186572630915988      16.019640354857334
   142   2      2.0254092876250835      1.9862787513527911      18.166331278211985
   143   3      1.9655021847652963      2.2011486198046977      16.253858451886618
   144   3   -0.069268615058006744      2.2193867642193528      18.243852822632469
   145   3      1.8558338174543334    0.074731123289057358       18.21678235570926
   146   4    0.051692181865754347    -0.24279706709895982      20.241864396537938
   147   2      2.0903274558253719      2.0327359987245162      22.197097445465815
   148   3      1.8415922742818043      2.0635029529159707       20.27390448374463
   149   3   -0.059621551989902447      2.0039045432745763      22.460997397697462
   150   3      2.0410465092880679    0.095459342795972124       22.39945505170579
   151   4     0.25834045790691451      4.0948634752120494      12.058978073108753
   152   1      2.0546319659894499      6.0325798624057834      14.166526627692768
   153   3      1.8454927508231196       6.176680354528755      12.149120996339644
   154   3    -0.14772147332297256      6.1925747568608323       14.33779358413833
   155   3      1.7683992374446491      3.9961359688565223      14.176147572983506
   156   4     0.22274118858011555      4.0837363258977826      15.992105439136948
   157   2      2.1513325763916158      6.1004049236538886      18.218013614728797
   158   3      1.8797071453974181        6.02720142035637      16.267694253408987
   159   3    -0.13283576419557341      6.0744369508045999       18.28775523767602
   160   3      1.9344521104005759      4.0891798393416465      18.379426879111218
   161   4     0.28262207186377275      4.1381835327597019      20.213827739681925
   162   1       2.077854196719648      6.0494565770586872      22.258491046925055
   163   3       1.799078921529965       6.145016218232513      20.214657047862474
   164   3    -0.11517116504356283      6.2807802210855499      22.369669311551267
   165   3      1.7346563153423082      4.0249664504610401      22.243691880701867
   166   4     0.28761232775010259      7.9954352917407672      12.011768479144237
   167   2      2.1162923546080474      10.037480503200641      14.198769211828738
   168   3      1.8227855404192022      10.115816327480973      12.246536494191082
   169   3   -0.097842709307204137      10.178331943917261      14.338376359406892
   170   3       1.902972114248918      8.1373197375468198      14.288109837079029
   171   4     0.27474626365152077       7.928037555815564       16.12179370456084
   172   1      2.0305641969786175      10.089984270596853      18.217425176029995
   173   3      1.9017483644864992       10.27707326596556      16.160552305624599
   174   3     -0.1123358324487473      10.336100692056096      18.221857910276054
   175   3      1.7759338642359013      8.0445527651319395      18.203735874944556
   176   4     0.25930677597893692       7.973718962950989      20.124263251277782
   177   2      2.1013474958173477      10.026797777115801      22.249792621201316
   178   3      1.7211049115493755      10.086646279941501      20.332836899320363
   179   3   -0.051528074794836315      10.127644703843686      22.522931267346742
   180   3       1.978389180349823       8.138612082920579       22.38751224359001
   181   4      4.2970174871922868   -0.055437192399754968      11.927732619191678
   182   1      6.1296850660602926      1.9822168522108485      14.150774953771208
   183   3      5.9205819348881441      1.9422872632936676      12.107323993701069
   184   3      3.9654269853689792      2.1012116612833158       14.17383344616823
   185   3       5.962870785703327   -0.022473056342012687      14.367325235147304
   186   4      4.4205151176645554   -0.016217670207788356      16.240218360304933
   187   2      6.2724246990261276      2.0259318167631433      18.238348759756732
   188   3      5.8690092985902069      2.1041717467033627       16.27852551401029
   189   3      3.9149596651200129      2.0696582689511991      18.319716559336062
   190   3      5.9217445056636651    0.070617097142089053      18.183141820724458
   191   4      4.4309668014863721   -0.035445258332833116      20.240401884706692
   192   1      6.1475241998284753      1.9729243391513351      22.269008276870906
   193   3      5.9329616703634391       1.989178348315721      20.200310889672835
   194   3      3.9707783028517909      2.2179321233031102      22.281727054775761
   195   3         5.8300863405404   -0.039636616309075161      22.320706868435856
   196   4      4.3583699390891271      3.8463772033283941      12.080117180708326
   197   2       6.152853358969808      5.9402972789163302      14.182760558017211
   198   3      6.1093344881337881      6.2575637654310192      12.214767064662222
   199   3      4.0939153788232847      6.2520841644145806      14.101227944760387
   200   3       6.039111305213642      4.0346637028792518      14.110609968695623
   201   4      4.4021188557481139      3.9549333633441202         16.239020619717
   202   1      6.1139093079776483      6.0480544949857027      18.192675337609053
   203   3      5.8780357297582881      5.9589303802486135      16.168022040178286
   204   3      4.0170199849604051       6.158815275044355       18.31824752276237
   205   3      5.8727059741917005      3.9929083835763453      18.296723910170996
   206   4       4.373460972524807      3.9164228074272107       20.19250201793243
   207   2      6.0539774684892604      5.9585757346227597      22.292041834030019
   208   3      6.1079803428170996      6.3534704473396655      20.250456794593152
   209   3      4.0934704328160025       6.065417371274906      22.078690689225787
   210   3      6.1403275919265869      4.0636758534497144      22.111145066935801
   211   4      4.2686475871334011      7.7649238064008026      12.256200950758478
   212   1      6.1125957525610151      10.144081608006831      14.169382716338978
   213   3      6.0632299306830637      10.174192236184346      12.104880972009935
   214   3      3.9999853376964105      10.177895129540129       14.18349130844622
   215   3      6.0707544382197041      8.0966569555809844       14.44707314430628
   216   4      4.3217191423112071      7.8517351867967271      16.003776504042737
   217   2      5.9078033019051057      10.039854516863084      18.140213102351403
   218   3      6.0140095738524959      10.411814284945525      16.265291888163087
   219   3      4.0458173551467489      10.176263005900545      18.311317045827757
   220   3      6.0537944635031167      8.1463852236257548      17.996551837075927
   221   4      4.2735147270272087      7.8482392648309993      20.346671730151456
   222   2      6.1900998840466848      10.176246732459299      22.211324646568709
   223   3      6.0546533331608714      9.8795335276247158      20.257484801058155
   224   3      3.9810571545100126      10.255355186358496      22.166383427727816
   225   3      5.8769710449870178      8.1422519791221042      22.400293858950992
   226   4      8.3956670967096372    -0.11259822839540136      11.927137737335809
   227   2       10.20316635564445      2.0232840900650579      14.062954228615254
   228   3      10.082710158784336      1.8008790702391435      12.178059926040508
   229   3      8.1815095763275689      1.9311907327592619      14.459954136411076
   230   3      10.180376889518122    0.013795245671040264      14.490099073237449
   231   4        8.37163169501674    0.069509231565678994      15.997008924332588
   232   1       10.19752598621429       1.966310465303319        18.2196331806175
   233   3      10.211530372573604      2.2990723214043611      16.210078526480189
   234   3      8.1321870307095985      2.0819578511600469      18.151023213036073
   235   3      10.134983729737307    -0.06027239354771468      17.986080960746452
   236   4      8.3137231494707198    -0.33224233512491691      20.212565019770935
   237   2      10.162262194794216       1.860283293778203      22.253087686595229
   238   3      10.153231031295533      1.9810450657620282      20.266829821255339
   239   3      8.1704137823261078      2.0706018788744833      22.260517420742939
   240   3      10.177469023045076    -0.01218649729995679      22.473901390649228
   241   4      8.4708695327708465      4.1421594139925393      11.997322712264832
   242   1      10.179551670562301      6.0537336720252686      14.194476195561487
   243   3      10.074871987841084      6.2770909100956356      12.186313598197327
   244   3      8.0855865852423534      6.1970292648473722      14.274444082948822
   245   3       10.00770045301433      3.9971865634378378      14.059260528823769
   246   4       8.391820090694587      3.7882536781405771      16.005107212466527
   247   2      10.021042912809122      5.9886364363084148      18.196891907156743
   248   3      10.265448059984678      6.0252542056062293      16.272181868742244
   249   3      8.1416070099121089      6.1954102034611198      18.226578910863157
   250   3      10.185468753984058      4.1205310855534458      18.454668130272093
   251   4      8.3443297735251019       3.783752547419688      20.434633734540309
   252   1      10.151569624546614      6.0543018011755052      22.200740466971336
   253   3      10.115380166835918       6.409692316776157      20.179768760661933
   254   3      8.0306644263228115       6.324095995842959      22.217268602961333
   255   3       9.964202801294574      4.0626714284676559      22.084434310062356
   256   4      8.2168685608635528      7.7245959070504222      12.036951483002053
   257   2      10.018724170556036      10.142487334500659      14.061379320923775
   258   3      10.092091814418945      10.013359225269307      12.192338707951258
   259   3      8.1361500887744604      10.133418854747418      14.331637563698177
   260   3      10.155805408749538      8.2010899126564762      14.494355320215918
   261   4      8.0337387901691084      8.0530870140368584      15.889808729428347
   262   2      9.9746288535574887      10.119201320728893      18.215491423447997
   263   3      10.213457962577678      10.359074844773092      16.291302048533055
   264   3      8.0851377018024007      10.196641576380973      18.323660168341483
   265   3       10.24780575374375      8.1766789407391212        18.0953844882007
   266   4       8.031568709858341      7.7807273048594814      20.200947521407471
   267   1      10.099711193438424      10.172619881620642      22.221184655927892
   268   3      10.314989812727392      10.036784546340167      20.215640287389295
   269   3      8.0674676741219358      10.041283232105522       22.36857339289498
   270   3      10.234430452340833      8.1275921575929733      22.460938275208864
   271   4     0.20464616884883952      11.915781213836519   -0.079909893482674965
   272   2      2.0570028890477268      14.067486791648308      2.0733501033713702
   273   3       1.788945647868343      14.120518812408177    0.029157546815492805
   274   3   -0.019287364048425369      14.400145269195397      2.1846238997772209
   275   3      1.8351739749820686      12.181820103766464      2.1343449670970251
   276   4      0.2532899300223912      11.941197059757519      4.0217017127285306
   277   1      2.0424116439209383      14.101435628339365      6.0351962813132412
   278   3      1.9923913373215343      14.332514078508279      3.9969490975663224
   279   3   -0.068652224328119543      14.463016310392236      6.0373961067244171
   280   3      1.7109463034673211      12.081410427379803      6.0202151273168827
   281   4     0.24373669690393401      11.953718155297759      7.9263271304199439
   282   2      2.0746620000191784      14.101168984055811      10.035263970298706
   283   3      1.8644381173081859      14.104790114085061      8.1630369974378372
   284   3  -0.0055780634060172548      14.193680131546309      10.361169608728785
   285   3      1.9762868667732703      12.221756945025779       10.33149863437645
   286   4     0.17494685643308153      16.056499305319164    -0.21002188280942427
   287   2      2.0530515207292366      18.163831134760429       2.005183187774104
   288   3      2.0785776099557536      18.502858265367724    0.050366077808873401
   289   3 -0.00050182112205410939       18.33380221516261      1.9461172882984148
   290   3      2.0674555223793951      16.236724828997136      1.8932465244069285
   291   4     0.32646939857442475      16.011735675274331      4.1931687575666459
   292   1      2.0150222466022889      18.232252431285715      6.0262633464210262
   293   3      1.8726389051223429      18.220163733113086      3.9977985437374657
   294   3   -0.061604358231754787      18.212903503623291      6.3259980352816392
   295   3      2.0491736555854123      16.214978328895885       6.254813088645097
   296   4     0.24098246366052464      16.104753630125586      7.7520601802170344
   297   2      2.0639389698335817      18.229731018662505      10.128325882206003
   298   3      2.0990477512352776      18.486400493315006      8.1768439875897112
   299   3   -0.032848494734516502      18.470630656571888      10.073776624419331
   300   3      1.8619367109116132      16.230569066063101      10.107432232408383
   301   4     0.16972580052348821      19.998066520457833    -0.12166559248315706
   302   1      2.0500418603739088      22.292867771653871      1.9931848380145571
   303   3      1.8164081123402858      22.299464347617715   -0.069397035189476527
   304   3   -0.067037559162682614      22.523644586349107        2.13480104207173
   305   3      1.9538171144468361      20.262843359773115      2.2572950980280977
   306   4      0.2457721806815665      20.129926682077766      3.8830717282763252
   307   2      2.1213910384094583      22.221249843392059       6.081402419534383
   308   3      1.9318769028080143      22.440202816991764      4.1269535861471578
   309   3   -0.064785896973672791      22.605816578151099       6.046590284130648
   310   3      1.7942362694188216      20.320350041806094      6.0190465671858098
   311   4     0.16338509362307943      20.043257494503461      7.9042624649574789
   312   1      2.0279619105649624      22.301466714537298      10.079023392557428
   313   3      1.8025248252533228      22.283396779393431      8.0489906956242177
   314   3   -0.080219002183757993      22.301271898173194      10.347875836665025
   315   3       2.065177384367137      20.252900459993398      10.388741179662695
   316   4      4.0881853876901362      11.777896746886505     0.19954496763688712
   317   2      6.1933745257057664      14.136988937177307      1.9122116657965356
   318   3      5.9725071223650295      14.158429438227214    0.033487392956434006
   319   3      3.9629346136494004      14.113509657091377      1.9503980328594737
   320   3      6.0437121759020824      12.216404148857508      2.1507453337784019
   321   4      4.3071635055306388      11.752886455046745      3.8492047216233614
   322   2      5.9401408135970524      14.078883418471262      5.9629611815548316
   323   3      5.8953507435349763      14.345360495563259      4.0376852959795029
   324   3      4.0593988909983283       14.13220386392647      6.2550437278866777
   325   3      6.1544621693860986      12.214422918930595      5.9827571201073253
   326   4      4.0930768257826537      11.777879436322166      8.1349684312979011
   327   2      6.1186573382348968      14.249723089607421      9.9611725680929997
   328   3      6.1056518009607901      14.114553157659662      8.0940566618532266
   329   3      3.9936564217060426      14.209882201174807      10.145825282991547
   330   3      6.0312445303675455      12.275891586976513      10.368314101441698
   331   4      4.2783835069262963      16.000430312073508    -0.02917276383662749
   332   1      6.0549004787687544      18.195256980646512       2.020639286037357
   333   3      5.9964863743148413      18.383845341263317   -0.033348709205745002
   334   3      4.0050671593467202      18.436960847389759      2.1025147095093737
   335   3      5.7681598371445171      16.136408238954409      1.9506199671660747
   336   4      4.3141190903043816      16.248778380374009      3.8849785155580405
   337   2      6.0359280330451837      18.281148170200598      6.0362391736903485
   338   3      6.0629377702569895      17.986442020756382      4.0648437948886533
   339   3      4.0509878102204686      18.450374727085624      6.1183363724123456
   340   3      5.8029594856730977      16.208605295000869       6.157688777523461
   341   4      3.9136245928448083      16.165637266347499      7.6534391079255313
   342   1        6.06895751777828      18.284754073871188      10.102862238032108
   343   3      6.0241971624567405       18.32256572003968      8.0497963347354258
   344   3      3.9894341693771631      18.239870633435441      10.320656170669055
   345   3      5.9783974922293917      16.163969175156709      10.141664714853921
   346   4      4.0663669523489823      19.926115809428669    -0.11293926818931492
   347   2      6.0036603370709249       22.17366710019845      2.0124100123234747
   348   3      6.1000073532979622      22.369378696979958  -0.0062344483793064743
   349   3      4.0949271995939691      22.096667732698513      2.0551893925097353
   350   3      6.2661403504846547      20.295233170569478      2.0890849466844785
   351   4      3.8810134430058323      20.228032378030434      3.7440113629360274
   352   1      6.0624773909789669      22.254051675382428      6.0465550468470113
   353   3      6.1032374969917145      22.504548985588983      3.9709470535741636
   354   3      4.0033600527186888      22.169515109051581      6.1132526212896474
   355   3      6.2970428262438629      20.213447529196021      5.9286563509470689
   356   4      4.1071772706874086      19.997686163770343      7.9507322064656947
   357   2      6.0707370447512981      22.196135360234756      9.9941327934702269
   358   3      6.0455549075739032      22.233120344730565      8.1202128648151568
   359   3      4.0675421527147018      22.332381300582743       10.32526862871887