(written by ASE)

1080 atoms
4 atom types

0.0      24.299999999999997  xlo xhi
0.0      24.299999999999997  ylo yhi
0.0      24.299999999999997  zlo zhi

Atoms # atomic

     1   4     0.24563038274993876     -0.2380752582327233    -0.18581211077461057
     2   2      2.0632186884133512      1.9217235576713274       1.949975350170311
     3   3      2.0315764270637779      2.2055270057469256     0.04905538604570344
     4   3   -0.021286316472581026      2.1162055544549769      2.0209202062345892
     5   3      1.9724314663503286    0.053945980748570488      1.9859567077815907
     6   4     0.18172555860516421    -0.30128222648606495      3.9250530442083034
     7   2      2.0938327296491543      2.0336819122312115      5.9845627727452078
     8   3      1.8451369879662578      2.0396106361607806      4.0617030557707992
     9   3   -0.054850118808540259      1.9867431598231051      6.3044462877300669
    10   3      1.9752917099181886    0.064536067103537639       6.216325089651991
    11   4     0.16045265659318023    -0.23140523528252127      7.9015219149719735
    12   2      1.9937281366121893      1.9970383593493695      10.018484825548256
    13   3       2.012225332582755       2.163411690075506      8.1354610616607523
    14   3   -0.050248507426147358      2.2189564910913204      10.202706398488878
    15   3      1.8374235080006922    0.089229717660897073      10.198751291827538
    16   4     0.31915269344148794      3.9568733568063306    -0.30097738746964581
    17   2      2.1790288197473786       6.056241510104643      1.9778610262281366
    18   3      1.9162480043227015      6.0741909238204288     0.04584391402323016
    19   3   -0.077839594774027313      6.1741162012266182      2.0958110968944887
    20   3      1.8802127820474557       4.097767339749038      2.1593327159904905
    21   4     0.25996971008240605      4.0889437657176773      3.9292565184157819
    22   1      2.0415535135737346      6.0119930627336258       6.058049714797944
    23   3      1.8802762972238367      6.1809258374169094      4.0113315197705068
    24   3   -0.065811711726278824      6.1598632255196026      6.2472538085610401
    25   3      1.7564199796798423      3.9856269382074219      6.0322082356035196
    26   4    0.083600445078304386      4.1201712361186589      7.7580350764613764
    27   2       2.097841442205842      6.1070854081389268      10.051091741490023
    28   3      2.0179586608437878      5.9368905817082736      8.1624023754235022
    29   3   -0.073732837646600533      6.0192683025475135      10.278536178506631
    30   3      1.9937864492458051      4.0519743828141266      10.391300559243858
    31   4       0.315398088445356      7.9403417114712189   -0.077023062862153602
    32   1      2.0645964101282259      10.074822364095585      1.9760608380808979
    33   3        1.89874802987847      10.271467491622463   -0.048507764086444749
    34   3   -0.058102750330999597      10.235180355824632      2.0338682201880469
    35   3      1.8686103749252785       8.040805533671195      2.0025778243287928
    36   4     0.28418484860807519      7.9290483923420503      3.8291381948964491
    37   2      2.0386846368213032      9.9781570126632033      6.0560580185001038
    38   3      1.8911653784834594       10.13206474331097      4.1121260163527831
    39   3    0.028375438416560393      10.123711034726506      6.2537089597611297
    40   3      1.9950174618792864      8.0954755951730508      6.2053253997620894
    41   4   -0.069752781392538307      7.9965630362988591      7.7445495497429029
    42   1      2.0092999640433464      10.041850987211529      10.085390203022444
    43   3      2.0525606753565286      10.375787983440352      8.0675899995179883
    44   3   -0.062687537676420921      10.360854166470128       10.14388224414391
    45   3      1.8410274702803471      8.0244433210872099       10.14792108822345
    46   4      4.1930255319003766     0.20526899692176376    -0.39019188741728467
    47   2      6.2199918673033965      1.9764115069236539      1.9448518714223311
    48   3      5.8573329728876615      2.1544853097972543    0.031999008793354509
    49   3      3.9558622095966589      2.1851938639868607       2.105984640962661
    50   3      5.8995952737726585    0.032750875496209239      1.8707783770851663
    51   4      4.4627589265649892   0.0015537564959782135      4.2038818228893113
    52   1      6.1306054633777567      2.0121291349205692      6.0274892703972807
    53   3      5.9130524906379129      1.8856276684830526      3.9725739492057288
    54   3      3.9650676191986003      2.0950735776567782      6.0454196045552813
    55   3      5.9664341181592873    0.017113834792757309      6.1928751807203533
    56   4      4.5141743937153107   -0.022973802854229713      7.9803728329958137
    57   2      6.2833443780699874      2.0240238805493096      10.175284262955177
    58   3       5.877390858953647      2.1018077086330935      8.1750408758621695
    59   3      3.9018628886677553      2.0133444760353227      10.321955508521016
    60   3      5.9524668866288106    0.068941463101213143      10.087907333403159
    61   4      4.0689215432845902      3.7613645107604876    -0.34644767976623519
    62   1      6.1074694766621755      5.9826315843285842      1.9377660295817811
    63   3      6.0155563234108484      6.0031856312490239   -0.078118943726632223
    64   3      4.0497129723580851      6.0864048059340483      2.1186875396270186
    65   3      6.1103714276622059      3.9718543414021834      2.2717475238256104
    66   4      4.4098669274317182      3.8668252635871929      3.9219081223456995
    67   2      6.1477085664276592      5.9482077356680287      6.0773521511529003
    68   3      6.0603902284930253      6.2731825634317957      4.0860462282741823
    69   3      4.0712700960436035      6.2189250325548278      5.9867013508680333
    70   3      6.0078434506629845      4.0358045032015992      5.9735980285956192
    71   4      4.4006549383716953      3.9412604097437245      8.1066468078612495
    72   1      6.1282614536265285      5.9998780626756805      10.082768114544809
    73   3      5.8526712382353248      5.9297240350910343      8.0555211059064078
    74   3      3.9974294077353449      6.1205563153561657      10.305095447384737
    75   3      5.8227576666612126       3.979558750020443      10.179367137361059
    76   4      4.3312694747167209      7.8640105390763626    -0.24936030585886759
    77   2      6.0220676901980035      9.9360626889708179      1.9980645967291319
    78   3        6.05981904207884      10.381613748640792    0.052568727196135076
    79   3      4.0836289254488891      10.240909613767352      2.0907795543644636
    80   3      6.0695324583796211      8.0724973904167872      1.8901380050285135
    81   4      4.1836598331307924      7.7227516397610678       4.135785839154388
    82   1       6.011202740094074      10.086550009902574      6.0507387544700233
    83   3      6.0652562680134459      10.156387715019113      3.9967764729427842
    84   3      3.9765885842602828      10.281157072896923      6.0776962933674232
    85   3      6.0149290039552605      8.0665863710844707      6.3106112798782448
    86   4      4.2552438558969072      7.7828237883043005      7.8644842185071369
    87   2      6.0445169505135974       9.895244743114775      10.119440560754699
    88   3      5.9784980742242624      10.385960520565661      8.1776408125818971
    89   3      4.0764872076740843       10.26933653026259      10.175258221777726
    90   3      6.0612532296334765      8.0528779902430898      9.9903857101967244
    91   4      8.3818388915453834    -0.22779272931131023     0.11378020894330212
    92   1       10.15803682635423      1.9750130392564667      1.9645492521507917
    93   3      10.209787018600226       2.326194963213708   -0.085507700505089948
    94   3      8.0929840386098526      1.9937790663773389      1.9064248000280706
    95   3       10.22786399597247   -0.019126447423116325      1.6582262142274264
    96   4      8.1400809200666036    -0.34409144379482665      4.0900804310493344
    97   2        10.1228557059213      2.0039926869639944       5.867379982929827
    98   3      10.144092020781885      1.8629265206588816      4.0014832803658615
    99   3      8.1586899001496285        1.93934631628887      6.2691784346879418
   100   3      10.197228422872497    0.038455162022527155       6.299983996569452
   101   4      8.0676504284192809    -0.15270162870236179      7.6179576138734566
   102   1      10.202222214716231      2.0343043547518946      10.082773365782751
   103   3      10.206301408704247      2.3269667258508391      8.0967491171622221
   104   3      8.1368488224490658      2.1210874253139393      10.086380516305688
   105   3      10.048150644527835   -0.022160070809413498      10.103691256583689
   106   4      8.4612336447683845      3.9322763674508447    -0.19662241078956344
   107   2       10.20167370962781      6.1619343484602895      1.8429244409940047
   108   3      9.9765453322232194      5.9133492826447762    -0.04561366299670961
   109   3      8.1377821012842197      6.0465554369047689      2.1838836423661889
   110   3      10.030480274721034       4.073628525927897      2.2010857811347408
   111   4      8.2101973339976873      4.1192215950482138      3.6478624491947169
   112   1      10.085548787191348      6.0031865838886853      6.0157442777943677
   113   3      10.117553170947726      6.2638284529302384      3.9764488249393413
   114   3      8.0595533922752658       6.179742070516852      6.0783807157840322
   115   3      10.079849427554331      3.9829568951429741      5.9740397129007015
   116   4       8.358072014076372      3.7304537674250646      7.9075419834978913
   117   2      10.116923163456436      6.0781793250167171      9.9622440560178749
   118   3      10.161671274802215      5.8409240500094484      8.0929709541542802
   119   3      8.1618880582214839      6.0171219741523894      10.244642112818376
   120   3      10.219663257470462      4.0811414741173424      10.430081199467033
   121   4       8.146514094118924       7.951110391034435    -0.32328986164748647
   122   1      10.058222125995153      10.095301804658884      1.9774420502722883
   123   3       10.06640915700749       10.47452999758737   -0.044419797533270633
   124   3      8.0036584559493189       10.29182567187919      1.9971158701361589
   125   3      10.145611913438056      8.0788124739214418      1.8378498891995585
   126   4      8.0750490793229854      7.7239515280697679      3.8452008904366037
   127   1       10.03335169227601      10.104261292980532      6.0673817473945988
   128   3      10.138215322055526      10.094176411463014      4.0313689755025504
   129   3      8.0344300492099414      10.144812586909405      6.2175841642822656
   130   3      10.188215493766863       8.066796361739641      6.2024377121189653
   131   4      8.1494819322389311      8.1739608648574453      7.5756166828007769
   132   1      10.071927617320732      10.076711747734441      10.118148935867024
   133   3       10.23827004446191      10.204629917851385      8.1195876466329473
   134   3      7.9993573858701055      10.334176185784356      10.070259693604887
   135   3      10.220149246856993      8.0338888297111577      10.069876866142094
   136   4     0.13198639174511836    -0.19278394587880465      11.951849767594188
   137   2      2.1418347762924315       2.007284453358543      14.142719525235581
   138   3      1.8037821884026184      1.9909693802029291      12.239231146791225
   139   3    -0.11464796831851498       1.999787817024292      14.460415713425455
   140   3      1.9369755940012565    0.040379834812792198      14.402949755346665
   141   4     0.10360107543841256    -0.13996935354599588      16.026605569563678
   142   2      2.0381953847736032      1.9467159301644839      18.242465877683593
   143   3      1.9664421971728336      2.1909213421333082      16.244339358543414
   144   3   -0.079318995896577579      2.2100679794304874      18.167282944606232
   145   3      1.8472579854634938    0.038646349483223728      18.189561895622333
   146   4     0.16216559707196673    -0.22000075098129662      20.294051389501046
   147   1      2.0053309036431926      1.9892116909313806      22.223849286498545
   148   3      1.8371048757353212        2.06914312576711        20.1889520849215
   149   3   -0.091761075624800389      2.0567695526493823      22.427587449178546
   150   3      2.0303841849507878   -0.031108943814784049      22.417950476021232
   151   4     0.29970572545541663      4.0842369651952408       12.09876070533414
   152   1      2.0379122952441615      6.0117469586846841      14.190853232647806
   153   3      1.8747266417632551      6.1902746481936379      12.176239335147292
   154   3    -0.13277293847319588      6.2412510193823438      14.318784056107161
   155   3      1.7753716817332426       3.978543266985711      14.178087778769942
   156   4     0.25667410147811232      3.9599059058839323      16.062070170276929
   157   2      2.1484571642555426      6.0742600338919388      18.219961222264196
   158   3       1.893072663399483      6.0577969820305864      16.264585003393261
   159   3    -0.10997758419529229      6.1334092317228652      18.287265785816782
   160   3      1.9246119150070611      4.1014639895169021      18.322138892773726
   161   4     0.39682076633783003      3.9916003107937339      20.358358541473883
   162   1      2.0446463303909588      6.0680848380443067      22.247038561518327
   163   3      1.8918679027543199      6.2132130611802321      20.217920720713547
   164   3    -0.11180270021455516      6.2453548772033107      22.343754969979493
   165   3      1.8543582497930395      4.0671229402028652      22.240345232317107
   166   4     0.25355389407363249       7.886855541887428      12.032911079313353
   167   2      2.0906194409660803      10.033949389065089      14.187291496578982
   168   3      1.8873341120637723      10.155197821494465      12.237925788756183
   169   3   -0.065595830398306257      10.194255975020322      14.353537059763234
   170   3      1.9413885018779844      8.1514848788296028      14.315480297147484
   171   4     0.25847844780925022      7.8787351141482924      16.149765883839802
   172   1       2.026271147147459      10.091919585057157      18.229549413032245
   173   3      1.9596035138037409      10.368508160869011      16.168970118969355
   174   3      -0.110483337209324      10.328794052578369      18.282181420145928
   175   3      1.7945711479798556      8.0611782039793738       18.19650844095937
   176   4       0.318675351303641      8.0088481760961763      20.135397789650941
   177   2      2.1383392978600093      10.074375071416807      22.287707908980945
   178   3      1.7945987582492835      10.094999350360231      20.338072014913664
   179   3   -0.077009261937219298      10.207878876181661      22.408586575501605
   180   3      1.9390271978325408      8.1575768939660751      22.390857601217096
   181   4      4.2075951278675046    -0.14521463677443489      11.758835999377732
   182   1      6.1220916553931355      2.0040770695376979      14.134166424274245
   183   3      6.0156799371150456      2.0012719314568082      12.099906550085592
   184   3       3.995064519344782      2.0671961726003398      14.153925360938407
   185   3      6.0363761733062224   -0.012699326455939382      14.366090460366214
   186   4      4.4260094777543726    0.049923949297616385      16.286342044221438
   187   2      6.2853036127670521      2.0602745383190526      18.241240440390271
   188   3      5.8605553713237635      2.0678940152351695      16.271181844496269
   189   3      3.9310378573426705      2.0272614699805325      18.272317050687857
   190   3       5.927255208880168     0.06801095646865922      18.174352862819113
   191   4      4.4506720319110578   -0.039772528723530785      20.237822409150347
   192   1       6.171776796800903      1.9658658861726379      22.266974532892874
   193   3      5.9480939201032141      1.9455116173509956      20.194363213692711
   194   3      4.0372447305925929      2.1291057592607574      22.292927575834494
   195   3       5.882358809893911    -0.06041228355894987      22.323777601744737
   196   4      4.2979433534467839      3.8663993553523861      11.995415123369705
   197   2      6.1181956602865224      5.9460698521558735      14.170420308537436
   198   3      6.0984494063357451      6.2538477203719589      12.205128766261261
   199   3      4.0788155430843869      6.2319634996900506      14.113280898191828
   200   3      6.0563964091059797      4.0437240156085386      14.159534069428924
   201   4      4.4064381470734277      3.9500839164814501       16.26542004146922
   202   1      6.0971427562153551      6.0046774579493167      18.220351077892115
   203   3      5.8740001738793541      5.9751491212802383      16.180401969118098
   204   3      4.0209034210534735      6.1992020741609224      18.314595166651923
   205   3      5.8851053410280914      3.9740712592147247      18.265389921330428
   206   4      4.2031647407695178      3.6599011100057184      20.406904817449949
   207   2      6.1199838526595283      5.9492227249755709      22.276429244202578
   208   3      6.0807840179156001      6.3638785604414316      20.272047893352529
   209   3      4.0936870121512099      6.2446171920436084      22.205073516462697
   210   3      6.0513974397868466      4.0534635907545828      22.077222778013027
   211   4      4.1083055673918025      7.6699353232240766      12.199630729955247
   212   1      6.0498335160823835      10.089340156203527      14.151568756526336
   213   3      6.1146353759041183      10.149438318848897      12.098790039268108
   214   3      3.9902083678240716      10.262868843701582      14.222955581976098
   215   3       6.068620936536461      8.0901069238627628      14.472921531852212
   216   4      4.3023155686787513      7.8127288588419175      16.040239587386694
   217   2      5.9285922037617329      10.011705031885942      18.251415857498387
   218   3      6.0730112490084389      10.482452006930478      16.276076983552795
   219   3      4.0467184428369265      10.213195806799124      18.155922066825678
   220   3      6.0567684422604415      8.1456112479110843      18.046814200574119
   221   4      4.2039186189682409      7.7703452207971946      20.305076367900806
   222   1      6.1050315274983884      10.092798813467468      22.265450715164619
   223   3      6.0892531616994647      10.106850566762095      20.194296354214757
   224   3      4.0200497467008223      10.161744099321778      22.300891189406823
   225   3      6.0950017938882821      8.1023448750987939         22.487422990776
   226   4      8.4686245717828399   -0.054776438107052905       11.99390342781051
   227   2      10.228809330268071      2.0427432122857536      14.089901705952988
   228   3      10.040390463807954      1.8183496752545005      12.194404772751309
   229   3      8.1757908792932756      1.9536643480989901      14.466094322948591
   230   3      10.140131359179318    0.024573096677149138      14.468923860935023
   231   4      8.3361694624241256     0.13834243810953054      15.993878539866591
   232   1       10.20641892720654      1.9954935197680141      18.217091264315993
   233   3      10.215118349901553      2.3130924218624802       16.20190266202421
   234   3      8.1451675733109887      2.0710317718901181      18.143329226790843
   235   3      10.143919288721129   -0.033899644799433665      17.955675905497195
   236   4      8.2970746601453094    -0.30849909550944593      20.264296829295343
   237   2      10.171856999177345      1.8785063108895774      22.244147207178496
   238   3       10.13452979020777      1.9723138482218634      20.257008507198808
   239   3      8.1772322204793362      2.1111768431097842      22.261913278869127
   240   3      10.164042003529264  -0.0048286152221859013      22.435836358638529
   241   4      8.5001155001134787      4.1730402096487333      12.038571305752262
   242   1       10.17825517811508      6.0739675886879807      14.183624273254846
   243   3      9.9986885283120639      6.2199825183412667      12.172415047002508
   244   3      8.0680242531057509      6.1938391340490861      14.277345307391379
   245   3      9.9922200719402721      4.0135057623449235      14.062307544841071
   246   4      8.3688112303627804      3.8304778885641904      15.963574140718238
   247   2      9.9995633859444624      6.0099021113036271      18.212732709944103
   248   3      10.247051713284982      6.0372261476314586      16.286325096106982
   249   3      8.1257478497962055      6.1961019752743933      18.273071396200052
   250   3      10.191359385420144      4.1418780371254842      18.479354191621997
   251   4      8.3767292920613698      3.7842784962702765      20.418345120961021
   252   1      10.157435884514175      6.0694807871726724       22.19816452813297
   253   3       10.14541052977072        6.45675314935845      20.190093639592323
   254   3      8.0766032456744785      6.2126701952970365      22.198307873909926
   255   3       10.03579419039383      4.0592090181627789      22.040116913012927
   256   4      8.1887579618195208      7.7139936866161545      12.038022371386125
   257   2      10.041525001709768      10.149066375176325      14.043091489162201
   258   3      10.061186847505095       10.02167439571928      12.177402969396708
   259   3      8.1312065454975269      10.148829182945555      14.380335139713956
   260   3        10.1319944897902      8.1957469773485094      14.470869236876725
   261   4      8.0156970923699138      8.0182872368407399      15.883586928123462
   262   2       9.970404892947732      10.154562164682558      18.176405662912288
   263   3      10.251741411138742      10.290982213633699      16.275875956273591
   264   3      8.0970224646909887      10.200267979237077      18.193228509910984
   265   3      10.260103914692092      8.1795739173474047      18.114886104671218
   266   4      7.9985525324482323      7.8016175903136711      20.236142384438594
   267   2      10.138319948409617      10.183484851942934      22.192636867428362
   268   3      10.198797819245984      9.9465221078818704      20.250313658474941
   269   3      8.1581208043835396      10.282756019125745      22.288049920975421
   270   3      10.097120867064243      8.2036686913809014      22.553252219949201
   271   4     0.15816633390759005      11.879257014325153   -0.056280120175312885
   272   2      2.0526076497288166      14.051424879884266      1.9389511897645386
   273   3      1.8906283534785835      14.098422318978896      0.0402789126544746
   274   3    0.024327409819842261      14.354101186605698      2.1970549836993118
   275   3      1.9255263401313951      12.197880441270602      2.2032747086922173
   276   4    0.037084715041780458      11.805043902085666      3.9411969233250979
   277   2       1.967934047091346      14.164667337780388      5.9388665852891558
   278   3      2.0102802469085201      14.377858752850116      4.0679565205944748
   279   3    0.028094944677089853      14.430506603932878       6.126701389896307
   280   3      1.8704413055108053      12.235138279855278      6.0327150833793359
   281   4    0.050899126674710533      11.813203751248448      7.9420127748931337
   282   2      1.9820904698150645      14.160651649931937      10.005570688992162
   283   3      1.9805765256850767      14.096027951526105      8.1425707587058707
   284   3    0.014616179023745755      14.146425069683776      10.296188909433893
   285   3      2.0808633832646102      12.265731382343152      10.383358810696073
   286   4     0.12203912730828118       16.19566470718706     -0.2949772670000716
   287   2      2.0262517277276788      18.173578865010661       2.023572214727388
   288   3      2.1012079598412168      18.489243574651226    0.054987226504451314
   289   3   0.0043258107567252842       18.34001815012137      1.9919640419516078
   290   3      2.0167475748926771       16.23830201975623      1.9623779345929033
   291   4  -0.0089762242923752122       16.12069184244778      3.8492434610359045
   292   1      2.0171699491638035      18.240997046660389      6.0117691240318276
   293   3      1.8937554852876683      18.213363896596402      4.0031926957785577
   294   3   -0.049107576520148272       18.21105490925606      6.3286500401308867
   295   3      2.0659086375017384      16.168119622426047      6.3530089407096106
   296   4     0.13625161305257205      16.308374036992944      7.7904129044587043
   297   2      2.1195286307900236      18.298571109198985      10.074029463255622
   298   3      1.9984031941373375      18.322052299825039      8.1625278693036094
   299   3   -0.020033254068979735      18.365641185966663      10.233033784385395
   300   3      1.8448882313645292      16.213458220595136      10.117895557237192
   301   4     0.24594757627839686      20.054984985170869    -0.18221182017864146
   302   1      2.0435320851791046       22.28792226324714      1.9756199695978702
   303   3      1.8054635524895448      22.222575102890843   -0.066168413377801827
   304   3   -0.067489530198355088      22.398530411112009      2.2059655658265207
   305   3       1.987017451909155       20.26235055888397      2.2508301006975606
   306   4     0.22584510877333866       20.17826252624894        3.83704585783024
   307   2      2.1328195409567838      22.208413250516024      6.0759686498590897
   308   3      1.9565369310251213      22.421968794321742      4.1276797461090036
   309   3   -0.057010934887439357       22.55936935671933      6.0647408281901267
   310   3        1.78958449000334      20.315644671083309      6.0058954357998919
   311   4     0.17130327928378328       20.08772028241944       7.828588603679961
   312   1      1.9940175255783452      22.291560325550464      10.088096163906805
   313   3      1.8254824579698181       22.27131269013945      8.0548992463151095
   314   3   -0.064968696285329211      22.277989431312093      10.386600531762495
   315   3      2.0344730315731341      20.222741218419586      10.338623977827393
   316   4      4.3939549930616897       12.04921469851489    -0.21864406285276061
   317   2      6.1723030581561735      14.152493617676349      1.9750890112472876
   318   3      5.8842957182021651      14.100687211891664    0.063500573126827511
   319   3      3.9594479715684785      14.209815573771987      2.0718603377091971
   320   3      5.9874267528063383      12.249959563667051      2.1983708592998252
   321   4      4.1287584352391509      11.761686949808855      3.9017540647694311
   322   2      5.9373109996510944      14.106766786116271      5.9586469035909113
   323   3      5.9445670267497244      14.403517774529725      4.0683362352530548
   324   3      4.0037541595880315      14.200126311675998      6.2125394883535332
   325   3      6.0908911757365392      12.231817962127376      5.9879127213637817
   326   4      4.0027780135862647      11.764110438746098      8.0567967541055356
   327   2      5.9386444232250311      14.224045874684609      9.9782851225468754
   328   3      6.0896121748641683      14.065735954789936      8.1169150909821788
   329   3      4.0152422993866042      14.311755540512207      10.210825809744218
   330   3      6.0068960154858209      12.289669367632825      10.426363896922087
   331   4      4.2863899219077046      16.042011769339339   -0.037719026647543445
   332   1      6.0707351875218265      18.226125703293608      2.0431562154454972
   333   3      6.0126995898758624      18.426900667686109   -0.028898582780545141
   334   3      4.0148895364168933      18.385426262561694      2.1379531530756184
   335   3      5.8222649648013727       16.15682043404675      1.9046011294213121
   336   4      4.2538045551135211      16.364351502674083      3.8079899702235158
   337   2      5.9690326118848063      18.382707369300238      6.0441016383126165
   338   3      6.0627285130010362      17.939776208916104      4.0921057060230748
   339   3      4.0543991494926299      18.156540516515502      6.0747087960098334
   340   3       5.978429791248276      16.148988367121422      6.3436760064111031
   341   4      3.9534490546855414      16.417965290526418      7.7627716482920874
   342   1      6.0608500798781924      18.242073031201436      10.104867243775551
   343   3      6.1395635657192802      18.269985377944003      8.0355835732150567
   344   3      4.0151270441238882       18.10365324797349      10.256731129108017
   345   3      6.2785574946527491      16.154385423087053      10.059937830947169
   346   4      4.0717717716633794      19.927218360495822    -0.10218900313608957
   347   2      5.9827996828595982      22.198322021813109      1.9989133684225717
   348   3      6.1822333367900582      22.255860611272738   -0.011711328685033447
   349   3      4.0862181691604675      22.111404743865702      2.0583021939786779
   350   3      6.2325750185679576      20.313148298576301       2.133830772000513
   351   4      3.8856364684875215      20.266709123098739      3.7205477693037099
   352   1      6.0776502272718851      22.279529035454139      6.0183578881403434
   353   3      6.0978292279176243      22.560994959339137      3.9606221228332608
   354   3      4.0143681372026085      22.242321853448757      6.1120847633836339
   355   3      6.1823890468853104       20.25053637338247      5.9062229402734125
   356   4      4.3177302033172804      20.666728351213479      8.3859926899251906
   357   1       6.149166217631886      22.346560663688365      10.152340260164319
   358   3      6.0701614423914769      22.173848192594463      8.0927395953501673
   359   3      4.0240572112767712      22.271820067527912      10.217288842707374