(written by ASE)

1080 atoms
4 atom types

0.0      24.299999999999997  xlo xhi
0.0      24.299999999999997  ylo yhi
0.0      24.299999999999997  zlo zhi

Atoms # atomic

     1   4     0.23916583386306717     -0.2478924909735879     -0.1983740412886815
     2   2       2.059789362925927      1.9190854057560891      1.9481342721616304
     3   3      2.0186371262331129      2.2069600289543732    0.047758301322295617
     4   3    -0.02239322390036939      2.1128650027127178      2.0305999461028628
     5   3      1.9728823152456405    0.051695366026273074      1.9861399354003644
     6   4     0.18382032275501292    -0.29954536958933298      3.9272122108709744
     7   2      2.0920498881072183       2.034136562990585      5.9861955752611324
     8   3      1.8540434574347797      2.0398436445378838      4.0609307927650944
     9   3   -0.054706022706948354      1.9867900263802765      6.2976376832411436
    10   3       1.973187700216944    0.065109662204359348      6.2144870223290969
    11   4     0.15232908325595179    -0.23700704068483483       7.908642407944944
    12   2      1.9862739805579199      1.9920671489083579      10.020494040468606
    13   3      2.0090383449016338      2.1666018702865295      8.1364313677529392
    14   3   -0.047809038498411158      2.2277433777041309       10.20440325577105
    15   3      1.8429421824506416    0.088832139955306658      10.196721815911124
    16   4     0.31543126544850641      3.9594713291083616    -0.30583183662768521
    17   2      2.1760527952373945      6.0571492252860928       1.973700019533482
    18   3      1.9142255534388548      6.0700702888463356    0.043394578519107781
    19   3   -0.078166881599632546      6.1720718952866465      2.0979136514629717
    20   3      1.8779430162648676      4.0976280771240541      2.1579792630899863
    21   4     0.26148601453001119      4.0908344975434972      3.9272453642311089
    22   1      2.0403062251109687      6.0122846075463832      6.0580351044091625
    23   3      1.8832482122782086      6.1850637497649155      4.0103162561636703
    24   3   -0.066931761570998158      6.1574367401188761      6.2494687562411082
    25   3       1.756474015891281      3.9862340734419237      6.0310645861140104
    26   4     0.08279750885252761      4.1179702816068859      7.7587330291646444
    27   2      2.0995954607508098      6.1074826440505525      10.053077361090716
    28   3      2.0161011757904452      5.9381632714913053      8.1639756222125595
    29   3   -0.074454949416245669      6.0232388359336886      10.278603055174644
    30   3      1.9984508164229076      4.0568818019661581      10.393750297181858
    31   4     0.31520461736914818      7.9550902085917041   -0.088590565420966355
    32   1      2.0598833700905859      10.076034952277377      1.9751286911824049
    33   3      1.8962428542223688      10.265434271459201   -0.046790362147759834
    34   3   -0.056999053141599726      10.224528521446086      2.0502796043235336
    35   3      1.8682270864634061      8.0404212687314107      1.9989537421711381
    36   4     0.28179293468991207      7.9363073191511786      3.8220187425174825
    37   2      2.0380614777550572      9.9786380986518584      6.0582506765816415
    38   3      1.8972683842996434      10.121876403235527      4.1158448648869603
    39   3    0.027187995957141175      10.124057743871255      6.2578556223243922
    40   3      1.9924522287990809      8.0952331764877012      6.2146570176338507
    41   4   -0.062641233645372274      7.9924930818348212      7.7464884651189951
    42   1      2.0081629712778311      10.043435610677243      10.087809576933561
    43   3      2.0512124686655651      10.376338332889574      8.0721042798766955
    44   3   -0.068710457728837868       10.36476229450143      10.142619452123373
    45   3      1.8401497172525247      8.0262305859333356      10.147005693056613
    46   4      4.1901080109703939     0.19686089540984128    -0.39337747825586461
    47   2      6.2217773350859558      1.9778710953579928      1.9415026912819084
    48   3      5.8674358962211715       2.153017359599867     0.03035531357287324
    49   3      3.9540533581876995      2.1867173701878722      2.0928221483936684
    50   3      5.9012281356218077    0.030873344288886207       1.872820735022356
    51   4      4.4576580625203501    0.007017903671046018      4.2071103837097397
    52   1      6.1291096900090842      2.0147261014964299      6.0267718740259371
    53   3       5.901583402012629      1.8871013360896407      3.9719223539345374
    54   3      3.9642324986782906      2.0929882273894647      6.0505754660050082
    55   3      5.9660305909782023    0.018379559777525742      6.1915561795824647
    56   4      4.5088802294378993   -0.016465289849095906      7.9778492563015631
    57   2      6.2813539814698434      2.0245223438046303      10.177299175765366
    58   3      5.8809118496708166      2.1054982097106958      8.1729746654875264
    59   3      3.9011537445158426      2.0168637135453933      10.320927552314275
    60   3      5.9516980167219771    0.071028197960435344      10.083250169220271
    61   4      4.0608294169571284      3.7540809673601183    -0.33617673259097014
    62   1       6.101072090983318       5.980505696109879      1.9394810671572935
    63   3      6.0443389852562301       6.014342492753177   -0.081877117052531465
    64   3      4.0482631302216117       6.087286056376791      2.1127384424563487
    65   3      6.1120193571060843      3.9712562054595382      2.2708553124004238
    66   4      4.4083362083566193      3.8615488039961723      3.9207391840943191
    67   2       6.145156266476075      5.9484072356990421      6.0772236403962534
    68   3      6.0587939413829277      6.2782093167588631      4.0842462391111081
    69   3      4.0705144878908142       6.222235068885845      5.9870142544105516
    70   3      6.0056043642092467       4.036894774754562      5.9671754408155024
    71   4      4.3981764685510507      3.9393507710547939      8.1116077453388513
    72   1      6.1285795057259138      6.0015114301247312       10.08294279681518
    73   3      5.8531290092754933      5.9267422053768302      8.0548058686621271
    74   3      3.9992602616410866      6.1233988533086867      10.307114170823239
    75   3      5.8214188191849452      3.9812742240365555      10.181467066973564
    76   4      4.3077338713017008      7.8723645269170657    -0.25966540733381699
    77   2      6.0184953554486391      9.9391030707241086      2.0007048869217225
    78   3      6.0628193020770942      10.388500157036374     0.05474261833903752
    79   3      4.0818371394901032      10.238208303856636      2.0929879479882794
    80   3      6.0774120835724217      8.0744317794495917      1.8769342344163982
    81   4      4.1742735235051667      7.7205296682767504      4.1335698300061159
    82   1      6.0113278736728812       10.08658201011273      6.0521213335962383
    83   3      6.0662289913150227      10.146466809468054      3.9987467046586453
    84   3      3.9768813688832365      10.276951543755128      6.0837915244024838
    85   3       6.017212867111196      8.0666553531767402      6.3152003504062719
    86   4       4.254409434307882       7.785988154967729      7.8647033289311086
    87   2      6.0484365401758549      9.8968017731904148       10.12062252515951
    88   3      5.9811309112634028      10.389184930984204      8.1781577873307327
    89   3      4.0791517243480895       10.27101508127965      10.175756760573215
    90   3      6.0629525361148175      8.0545518720017952      9.9873070543905307
    91   4      8.3755535913140822    -0.23334533860242995     0.11610117272899163
    92   1      10.159737496332468      1.9732620113820203        1.96546424899731
    93   3      10.202701769940752       2.317040574024527   -0.084521013076435572
    94   3      8.0936052934223195      1.9843530523111277      1.9241640124531461
    95   3      10.237240261237874   -0.020602403405543951      1.6675633728828982
    96   4      8.1380660478968103    -0.34194761759679643       4.081570838588358
    97   2      10.123462370489234      2.0050158428504967      5.8686877773770973
    98   3      10.150817509043485      1.8600380292523964      4.0029057110102793
    99   3      8.1577108207756357      1.9399662195126697      6.2660570314379704
   100   3      10.199230520726266    0.040207318163892301      6.3015824764891697
   101   4      8.0577131047316577     -0.1491028231270454      7.6116906554554156
   102   1      10.202713979122949       2.040631719918943      10.081837372694707
   103   3       10.20427929562989      2.3315549656478822      8.0965638451796327
   104   3      8.1357594006122707      2.1255138060085974      10.087782399325013
   105   3      10.045701960972449   -0.014506638430155096      10.101460932696895
   106   4      8.4653878625359944      3.9380950447821021     -0.1994181358558462
   107   2      10.207426629526887       6.165330755063815      1.8451186715554151
   108   3      9.9715797086743283       5.912856290244723   -0.041294671865496943
   109   3      8.1356909950104921      6.0581389676775412      2.1751306753392559
   110   3      10.028186244288442      4.0732866984475988      2.2002050839030627
   111   4      8.2157357465480594      4.1247080282090121       3.649040350620274
   112   1      10.084925401276459      6.0026754948018874      6.0160776728865279
   113   3      10.116474749886258      6.2530342468410325      3.9765114535559665
   114   3       8.057806634786651      6.1790417259338257      6.0775863499376062
   115   3      10.078391581089866      3.9829414867978374      5.9691247962103082
   116   4      8.3538091118811781      3.7304039987804964      7.9084184778420337
   117   2      10.115417117019584       6.080239268073548      9.9637991229132901
   118   3      10.163005090318949      5.8367816921297448      8.0942508863303768
   119   3      8.1634948253075397       6.018419436356802      10.249342807548883
   120   3      10.220472107079983      4.0836061628840241      10.434807074245432
   121   4      8.0559487843003712      7.8801054648604589    -0.27868482502097724
   122   1      10.059710402629989       10.09486276326124       1.976802697510686
   123   3      10.052145266004343      10.474182414930064   -0.044480382613271044
   124   3      8.0038806377126832      10.289413322716674      1.9987777995865141
   125   3      10.160462124664347      8.0787738963654956      1.8508990023358638
   126   4      8.0685492717707703      7.7259633773863126      3.8452993248268972
   127   1      10.035542278731828      10.102942242688004      6.0682073893182453
   128   3      10.143142530091824      10.097887843178251      4.0313954155093663
   129   3      8.0360153023785426      10.143351694158035      6.2183434095871908
   130   3      10.188220357914757      8.0651437076301384      6.2013577493008141
   131   4      8.1456933740412829      8.1726925956196226      7.5748891600837549
   132   1      10.076421003569566      10.076511418724007      10.116697440727439
   133   3      10.246304689004257      10.205675170824223      8.1190940440833685
   134   3      8.0040524291509385      10.334876167402758      10.067082142174845
   135   3      10.232336051327463      8.0345252742506386       10.05823948987512
   136   4     0.10724133956081149    -0.21963901794191418      11.971929751532137
   137   2      2.1438006094549928      2.0070100625864327      14.140592561059989
   138   3      1.8142516578180532      1.9995764370576325      12.237615543772206
   139   3    -0.10612155489813886      2.0219969871475874       14.45125823695582
   140   3      1.9507169633645971    0.047018780542957071       14.40481228219174
   141   4    0.085426693652955618    -0.15581453686118987      15.998347851836883
   142   2      2.0358808639141195       1.940167818056604      18.236867685025349
   143   3      1.9675430332997315      2.2021137087110261      16.245567342378852
   144   3   -0.072277643431883296      2.2113860199192796      18.187613211339951
   145   3      1.8626063587676478    0.037223800448466307      18.193325061055415
   146   4     0.15436946327271817    -0.23909626623764815      20.293653627064007
   147   1      2.0012227554530186      1.9832094199791956      22.226180616220546
   148   3      1.8642323270112877      2.0839413520764416      20.188974478389436
   149   3   -0.093777660627433604      2.0630233822289958      22.406251615769278
   150   3      2.0322684024906486   -0.035906558342462237      22.423437936820331
   151   4     0.30447068695328888      4.0796158252778385      12.106147600150663
   152   1      2.0425905745557102      6.0161586683355504      14.192065119091305
   153   3      1.8773477462368817      6.1960849452258557       12.17740199355832
   154   3    -0.13360318314640998       6.246092638443077       14.31438777369466
   155   3      1.7823980842918337      3.9856453163121239      14.176790602764033
   156   4     0.25573119519245568      3.9591377572891715      16.051256095660332
   157   2      2.1478517859392605      6.0708894929408066      18.217148587700418
   158   3      1.8936420672633945      6.0657186016523754      16.262558097388609
   159   3    -0.10831424953169236      6.1446813780330425      18.282582549677389
   160   3      1.9238009157569347      4.1078666333855995      18.322451310616525
   161   4     0.39530083475644867      3.9813867137506667      20.358391740924709
   162   1      2.0380740776819635      6.0699174007489525      22.243103277687815
   163   3      1.9001177440510986      6.2244486210349619      20.215221180856631
   164   3    -0.11219772540184732      6.2443173502140761      22.340102477129999
   165   3      1.8609456987174615      4.0675880224784269      22.238959052905049
   166   4     0.26434333902089163      7.8939179334794982       12.04222915498381
   167   2       2.097949516790937       10.04045266062591      14.187507555476824
   168   3      1.8869202418160542      10.152972990538123      12.236399430167506
   169   3   -0.069404036304756195       10.19717778080275       14.34700449941913
   170   3      1.9409108260632053      8.1559020126743977      14.313424889672048
   171   4     0.27104499066422177      7.8953092117985184      16.156764677677536
   172   1       2.028748203017618      10.098637813164386      18.225253096160639
   173   3      1.9559958307982288      10.369656451554517      16.165339079957295
   174   3    -0.10883303113801157      10.326058790240452       18.27701236850427
   175   3      1.7963463893828566      8.0671371522990825      18.191207760377125
   176   4     0.32050400469490764      8.0229729846629319      20.124699575821097
   177   2      2.1326905084286358      10.080614293322419      22.285542231053729
   178   3      1.7946466359885622      10.088324259659704      20.336028660230074
   179   3    -0.07543335404858402       10.19140809531627      22.418788953052875
   180   3      1.9486745805972816      8.1568775604063877      22.395357536788644
   181   4      4.1916293476160886    -0.14388823844424545      11.750373186441129
   182   1      6.1205586524948021       2.007083199139545       14.13386454327374
   183   3      6.0219455881725086      1.9989659809821798      12.100686605740515
   184   3      3.9988859006156834       2.075044412771049      14.158502571120689
   185   3      6.0409882205734675    -0.01157753446773685      14.370565617639009
   186   4      4.4210434899963191    0.062354568192731268      16.289556204052698
   187   2      6.2830766240247602      2.0642701926524047      18.246905662282636
   188   3      5.8630271273579355      2.0681889941190041      16.270895336683161
   189   3      3.9320413549087663      2.0397910440857729      18.256375073751876
   190   3      5.9234199303992874    0.066627516204609008      18.169824827119893
   191   4      4.4479519137455839   -0.050574376185069811      20.230504499953391
   192   1      6.1689388715583444      1.9609732310438956      22.263332785728341
   193   3      5.9330786824484383      1.9411165237494454      20.192988648062112
   194   3      4.0341971885819037      2.1299736030802334      22.304287902356641
   195   3      5.8735346800629502   -0.065594468704852249       22.32148098232442
   196   4      4.2860737000287115      3.8663310460992291      11.988379966188612
   197   2      6.1161801139354326        5.94601865087024      14.173335713392625
   198   3      6.1028360687697871      6.2645732949485824      12.205929382342683
   199   3      4.0840071108453584      6.2358785308948983      14.111509377591062
   200   3      6.0681771311727921      4.0461607552670857      14.158001526481172
   201   4      4.4039455527924911      3.9432600632416137      16.270970273720891
   202   1      6.0986050224336044      6.0077258793637691      18.217411512127221
   203   3      5.8826226385385034      5.9808861179283888      16.179082642121369
   204   3       4.021926845101583      6.2029824558671649      18.310331243881347
   205   3      5.8992848861762459      3.9771177984009962      18.259201882747256
   206   4      4.1692841678547214      3.6455950332172682      20.416732712967963
   207   2      6.1039813333843105      5.9401221220432445      22.261599114925232
   208   3      6.0774122891981026      6.3749349835433469      20.270221962327618
   209   3      4.0921711215110488      6.2434720986633891      22.209203520299326
   210   3      6.0533545506459614      4.0488317416563664      22.072878174505394
   211   4      4.1132435654218531      7.6759222713465567      12.198728065746797
   212   1      6.0537951132316827      10.094877253909525      14.153164661283725
   213   3      6.1242520936553886        10.1454549764257      12.098829265602202
   214   3      3.9955175743614886      10.264127372580141      14.223687169296058
   215   3       6.071731298153078      8.0979311141034369      14.479356235468906
   216   4      4.3053037136965031      7.8198507248529046      16.045359942240143
   217   2      5.9331628665668754       10.01702446601025      18.252071172899122
   218   3      6.0862572176434941      10.494087369479779      16.278864129898533
   219   3       4.051263293688411      10.214257454911401      18.150195461113213
   220   3      6.0570427507943609      8.1496010053127712      18.036271339795157
   221   4      4.1867590361953848       7.777814248228621      20.288789624543007
   222   1      6.0960236373205685      10.094690565119333      22.265358988977415
   223   3      6.0887268192556796      10.090803289273648      20.194741063689182
   224   3      4.0166320995512175      10.161779204423436      22.306541194014802
   225   3      6.0923051855336956      8.1054799513049751      22.502893875108104
   226   4      8.4691542738213386   -0.037691823918664047      12.008167058016658
   227   2      10.230594353783662      2.0469414131037249      14.091649082186009
   228   3      10.033873382171814      1.8258196949283296      12.193627274201052
   229   3      8.1743302355459928      1.9555822144766077      14.464173377454861
   230   3      10.131930989162745    0.026354543047861737      14.457026649850288
   231   4      8.3346966302551078      0.1394639407019736       15.99466086562375
   232   1      10.206046824687778       1.997647749116271      18.214589057577324
   233   3      10.212637031917213      2.3067050682405106      16.196983163283168
   234   3      8.1442132132381584      2.0655652937514692      18.147100847076473
   235   3      10.155419199083344   -0.030275370669386393      17.956667759961313
   236   4      8.2845261660664526    -0.31792960725812275      20.262492242551815
   237   2      10.165433114212139      1.8774565393498579       22.24475254436738
   238   3      10.152773577390519      2.0001074453663308      20.254991195598407
   239   3      8.1750670439801052      2.0924690509002426      22.241492927630247
   240   3      10.175132126457816  -0.0055378883010219144       22.42586264752741
   241   4      8.4993110869348651      4.1671114635333915      12.039077953037406
   242   1      10.177274891120828      6.0786345121621128      14.183752394434819
   243   3      10.009549645561409      6.2330403397818799      12.171625651748521
   244   3      8.0695714682232271      6.2094219545045162      14.270095424447726
   245   3      9.9937718470033694      4.0174053207818599      14.064802711705282
   246   4      8.3623242202348873      3.8242335056671632      15.966738380286678
   247   2      10.003080852915089      6.0176205106813869      18.210767413576178
   248   3      10.249026970962808      6.0704189986989814      16.285627158144212
   249   3      8.1284695135982581      6.2168379953774258      18.269791266624075
   250   3      10.182949324132357      4.1481404729770368      18.448629286652142
   251   4      8.3850190474185258      3.7897312007638013      20.417238578055294
   252   1      10.152237604431086      6.0666787204665233      22.205759277667475
   253   3      10.142158354888119      6.4407783216388994      20.194171742518531
   254   3      8.0666782828006927      6.2188068665028293      22.196407127470323
   255   3      10.015495131388123      4.0594595803839431      22.066015358006116
   256   4      8.1774344662967984      7.7106111361916065      12.051363705073365
   257   2      10.044704421038537      10.143164157053929      14.037244286919941
   258   3       10.06792740948328      10.030914560641886      12.173401902086619
   259   3      8.1374792109746714      10.158122631663845      14.374929559491784
   260   3      10.144529754923203      8.2039968441088558      14.460261420713254
   261   4      8.0078652004239679      8.0218712506856544      15.891439620968267
   262   2      9.9798563552539683      10.182283847174588      18.177948006543868
   263   3      10.249194680906287      10.294603450537487      16.281191048706845
   264   3      8.1061413192505771      10.190255679759979      18.211100564672495
   265   3      10.292736569279356       8.199925761298049      18.154722298648576
   266   4      7.9903200215661165      7.8057997207429972      20.236160711866919
   267   2      10.096993407297008      10.109715433509404      22.245442181492646
   268   3       10.24072976904619      10.007809079398243      20.272846251165209
   269   3      8.1463428365130088      10.282628552172898      22.268735149665819
   270   3      10.100491300367201      8.1787280448498052      22.537891479728252
   271   4     0.14214759059675661      11.881298264593493   -0.073490074587245588
   272   2      2.0480324043539455      14.042609880559819      1.9468125426932013
   273   3      1.9118162386189543      14.093959204488453    0.051920830073579657
   274   3     0.03424596107527389      14.358880558252546      2.2073070964617942
   275   3      1.9321213007484133      12.191634937803173      2.2166337551220212
   276   4    0.020799068752227867      11.796446024403698      3.9410966587119525
   277   2      1.9658849735353947      14.162209385198148      5.9451229349386532
   278   3       2.015730856504653      14.376071406822408       4.076245074342558
   279   3    0.027685716569064982      14.426621611329985      6.1369742231657787
   280   3      1.8771136647110169       12.23225730500242      6.0364553943753494
   281   4    0.050820829293580574      11.813108832827096      7.9472237004512376
   282   2      1.9692086607642285      14.161621392690282      10.004964177606725
   283   3      1.9889711634174914       14.09049210131575       8.141940494470969
   284   3    0.013953221698796812      14.138664586343376      10.290993880968175
   285   3      2.0834196557383668      12.263045960018893      10.385912347879351
   286   4     0.10766190318849896      16.193829227901034    -0.30073294000061462
   287   2      2.0137289389571391      18.162602655026312      2.0239006309259557
   288   3      2.0893224641713939      18.487474052719755    0.056524151387969263
   289   3   0.0094529420733673267      18.322131895409008      2.0253080249559758
   290   3      2.0446697128857454      16.235177530685927      1.9746087110305264
   291   4   -0.036438739605853317      16.101555740338263      3.8617385042837848
   292   1      2.0171732648271208      18.242360703940712      6.0148704365272687
   293   3      1.9641583339015392       18.24304097160211      4.0046555811974383
   294   3   -0.047040963366867805      18.210715548624062      6.3245628777556817
   295   3      2.0682807028507866      16.167187544403895      6.3556907963591858
   296   4     0.13461556410983075      16.315540727588271      7.7961386639165369
   297   2      2.1138078323574137      18.304865452308643      10.075573279748866
   298   3      1.9985601030041578      18.318611944821239      8.1630644511873722
   299   3   -0.010730338117849094      18.359974795178712      10.233202396980362
   300   3      1.8533126106607565      16.207857203157698      10.111431757454762
   301   4     0.23969592827499253       20.05631572586433    -0.19219264752216039
   302   1      2.0403548779445142      22.288062442853118      1.9716095144418917
   303   3       1.792455847455281      22.216923713993381   -0.069509772683851057
   304   3   -0.068391740011615826      22.394254709853062      2.2186126044620633
   305   3      1.9746645857236134      20.266408541567838      2.2401289518568777
   306   4     0.21688469551271949      20.198433550953528      3.8231582543067741
   307   2       2.131370282339244      22.210553680269459        6.07865913823795
   308   3      1.9580106648665574      22.420990768363996      4.1287222682250135
   309   3   -0.058619230077223722      22.559328538624904      6.0648754041078528
   310   3      1.7929450161080476      20.318415295878861      6.0114273993220122
   311   4     0.16684855938376147      20.089133105317792      7.8288142484974825
   312   1      1.9905161097408595      22.292924813255311      10.090415612306378
   313   3      1.8200996492305577      22.274031037051312      8.0577157832050741
   314   3   -0.064052392632393332       22.27157212704066      10.398594696753646
   315   3      2.0374501830084433      20.225568619012474      10.338437742776195
   316   4      4.3811168957594129      12.051325187162606    -0.22569795874496534
   317   2      6.1625284601815045      14.149850369756326      1.9757518805765126
   318   3      5.8814012742669357      14.084511069429409     0.06492858559433716
   319   3      3.9643851400643819      14.203273922524891      2.0926727546618875
   320   3      5.9964727792948072      12.245667223306439      2.2120862524317997
   321   4      4.1184415727186581      11.760810378666335        3.90353549623882
   322   2      5.9357993357472525      14.105825904864769      5.9601399984477892
   323   3      5.9491928338688504      14.413321738976665      4.0712720628206016
   324   3      4.0062737735966758      14.201493902133679      6.2115241747056347
   325   3      6.0935348035220454      12.231668116142462      5.9806770624372945
   326   4      4.0001001686880642      11.763731661899195      8.0590791895646436
   327   2      5.9340222502278275      14.218935123435257      9.9763313047241677
   328   3      6.0981013482783268      14.061813648185089      8.1149749374148676
   329   3      4.0192699022830816      14.301312079820462      10.209488877160673
   330   3      6.0144040640214769      12.287932418623521       10.42704147064719
   331   4      4.2512677500459279      16.016492345220055   -0.053562598063951208
   332   1      6.0602284641210167       18.22293777362464      2.0474907072920256
   333   3      6.0398869714029866      18.443937359844444   -0.026769274493267985
   334   3      4.0158216448768229      18.412004483276768      2.0980044210786604
   335   3      5.8251526102794973      16.155727831022958      1.8967526199497347
   336   4      4.2413001264172152      16.343223942154026      3.7993330489884976
   337   2      5.9630219104639632      18.378806035377789       6.044595887115416
   338   3      6.0456122075885661      17.941351191527744      4.0925788032478438
   339   3      4.0525112537597314      18.165324256598847      6.0944309636030365
   340   3      5.9793887241049326      16.152110393666359        6.34649970874709
   341   4      3.9445668584410849      16.417181642754556      7.7714997263443948
   342   1      6.0533288285075342      18.239595423447394      10.104107731385394
   343   3      6.1506700565614132      18.273738265647456      8.0365781768357429
   344   3      4.0144562006156512      18.106046935833593      10.253754466937854
   345   3      6.2805145022022675      16.150160580582543      10.055448485763865
   346   4      4.0519315710181285      19.923703159896334   -0.058519074578082746
   347   2       5.969682898396159       22.20096999046493      2.0067154419437827
   348   3      6.2008098562378002      22.250637492096562   -0.010328501134318074
   349   3      4.0817021580643953      22.103848178723439      2.0403175996829246
   350   3      6.2528789409943295      20.316437897157684       2.126520488073719
   351   4      3.8449000389345467      20.226677991971648      3.7337241045704328
   352   1      6.0732939672273192      22.279341746278114       6.015736738801424
   353   3      6.0921628830699079       22.56073482649936      3.9605885276286465
   354   3      4.0125720027386285      22.246077218532413      6.1229969890176035
   355   3      6.1862209738621514      20.248910935811995      5.9075438433632437
   356   4      4.3078552775582288      20.669830527685242      8.3847567254083657
   357   1      6.1440953534149179      22.352227774737678      10.148200453852718
   358   3      6.0685110178598176      22.173795675384696      8.0904601413668971
   359   3      4.0237488590767878      22.273152940420889      10.211851341451315