(written by ASE)

1080 atoms
4 atom types

0.0      24.299999999999997  xlo xhi
0.0      24.299999999999997  ylo yhi
0.0      24.299999999999997  zlo zhi

Atoms # atomic

     1   4    -0.03889166973989798    -0.21780342683117396    -0.20023089406038508
     2   2       1.991792988156956      2.0508302419099711      1.9309134800240026
     3   3      2.1608690100783896      1.9740550505176744    0.053142757574855919
     4   3     0.10802800218449353      2.1209482536919668      2.0982676623778245
     5   3      2.1137814327147835     0.13096948078385393       2.245358125313885
     6   4    -0.11056568894910718     -0.1563999190863829       3.897642396056459
     7   2      1.9455201993953597      1.9659299678570967      6.0392598563570008
     8   3      2.1494468681607084      2.2600234411761222      4.1078400252547267
     9   3    0.052169227550599363      2.0649883799588049      6.0657292159711691
    10   3      2.2175672953352463    0.090278444250846107      6.0233625900762719
    11   4    -0.25056742489702571    -0.24519829076615379      8.3698974752220501
    12   2       1.940857401527307      1.9418935984971939      10.149810222964069
    13   3      2.2277362265683678      2.0266560494895729      8.0982966706824495
    14   3    0.063825904036354617      1.9372914860012991      10.036481030372038
    15   3      2.2381111511526459    0.057172739085734781      10.089884068756133
    16   4    -0.26674224219777176      4.1191196531949137   -0.064090062132889078
    17   2       1.959288152306379      6.0521719550687516      1.9619249938645338
    18   3      2.0613484739369858      6.2488287814809524    0.072333013232288246
    19   3    0.065967997787357208      6.0601589487509155      2.1728807272296353
    20   3      2.1451901481187012      4.0844869768651195      2.0338821321146328
    21   4    -0.29457037303587447      4.0370848784939009      3.8646683679877243
    22   2      1.8980208041298721      6.0673890762541038       5.993809125323426
    23   3       2.222408176790899      5.9492091850487334      4.1058889036607269
    24   3    0.033699213350268792      6.2186580723054288      6.0472259133055504
    25   3      2.0679445245774435      4.1271445973117942      6.2997233805709945
    26   4    -0.39117041542800435      3.9695706128300161      8.2674362501290748
    27   2      2.0958164424336463      5.9361479756723483      10.076476787335581
    28   3      2.0443377374651153      6.3034351153926149      8.1008528764332066
    29   3    0.065430872871716741      6.2747228222648044      10.100616135815258
    30   3      1.9580249105891088       4.032754238657219      9.9682748564313215
    31   4    -0.35872024529809166      8.1225877994026501     0.12543387741114148
    32   1      2.0313056705862058      10.010353843430092      2.0066533745928479
    33   3      2.0120221530954074      10.189401888140361   -0.063693740467177656
    34   3   0.0029616639756050609      10.171937591914149      2.1143785026531998
    35   3      2.0542647223989765       7.998904731970196      2.2976416385162688
    36   4    -0.30562722370678091      8.0872269508876506      3.6248574534668205
    37   1      1.9669217694545289      10.094247746068501      6.1126849296332093
    38   3      2.1304299756773326      10.231707542584649      4.0812243044394974
    39   3   -0.077719244712655816      10.206530950981788      6.0361540737406978
    40   3      2.2984462981535834      8.0256796437935485      6.0092292547007631
    41   4    -0.19239356303574126      7.7883445269180376      8.2342207150935298
    42   2      1.9969593255776514      9.9947129401876271      10.100135576005906
    43   3      2.1026231047888797      10.057377075552019      8.1612076502773618
    44   3   0.0054532478981376246      10.105750109814856       10.00386979291507
    45   3      2.1002258668455771      8.1288924366900854      10.230944430846993
    46   4      3.9044793882253352    -0.20940630441206567    -0.20145150626096631
    47   2      6.0216205048672231      1.9496593162480809      2.0548920174392564
    48   3      6.2198037780034943      2.0202212746514965    0.060649827799374133
    49   3      4.1060346344006957      2.1272650015167778      2.1392479252680956
    50   3      6.1288285708940853    0.072496106876667202      2.0598298998979758
    51   4      3.9889303866885855    -0.25131503535979466      3.8760113866457675
    52   1      6.0336551426466372      1.9992668932856879      6.0955165285542483
    53   3      6.1294853205625524      2.2320379331122431      4.0049969155563998
    54   3      4.0335751560747823      2.3294342073422847      6.0854443718483751
    55   3      6.2611867033450936    -0.03938435164000835      6.1010696568806368
    56   4      3.7817382536858219    -0.17482557826622727      8.1035972080744489
    57   2      5.9525475791075984      2.0885398022833672      10.169052824980147
    58   3       6.232875530195245      2.0265429948266971      8.1715833963324354
    59   3         4.0813047311482       2.168683082566452      10.122601311575032
    60   3      6.1621071167738597     0.05740910170659419      10.128105782086333
    61   4      4.2026885822975997      4.0200942875682344    -0.41078856990202028
    62   2      5.9910542333039212       6.057601514803074      2.0938837575736442
    63   3      6.1710072190264604      6.2803459283176517    0.071166984257403421
    64   3      4.1013488185714051       6.148457228777902      2.0061091894229564
    65   3      6.2147315859864296      4.1107353649963603      1.8755310377918162
    66   4      4.0246914687002731      3.8058530995286444      4.1625771474953277
    67   2      6.0242396541032521      6.0951977124257306      6.1712346661197106
    68   3       6.187984166841229      6.0198413892559994      4.0513639756881457
    69   3      4.1223250829956619      5.9818448157734085       6.208103339842415
    70   3      6.2832662175001488      4.1080370349125159      6.1436625335869826
    71   4      3.9282365373743242      3.8415835395512414      7.8866854275196232
    72   1      6.0312763426794014      6.0004337705716777      10.068311106789738
    73   3      6.3203842972195901      6.1047503577062461      8.0574083770624405
    74   3      4.0102787518938063      6.0705834876668625      10.171480440174374
    75   3      6.3502452198136758      3.9829802579033653      10.095080836663042
    76   4      4.0470963278670791      7.8159657205399142    -0.13586861185559534
    77   1      6.0603397391508675      10.072760040470277      2.0335638515856798
    78   3      6.3260224435409027      10.127165999514119   -0.049032885760330568
    79   3       4.060295848591462      10.252490421412988      2.0256331893969706
    80   3        6.27932235275349      8.0460604927373396      2.1050341245793658
    81   4      3.6935475909871855      8.3050724679038819      3.9958345459760358
    82   1      6.0704652567727528      10.071465408098479      6.0958664911187528
    83   3       6.155607912581428      10.220904923812054       4.064728821335617
    84   3      4.0516230727471472      10.201144456940451      6.1912728135121311
    85   3      6.1384166696448261      8.0432804777235134      6.0055398169788434
    86   4      3.8722867693560823      8.2186447832442511      7.7750293889326771
    87   1      5.9844620163187985      10.028935093195489      10.164542635041958
    88   3      6.1413094435266062      10.146716516081453      8.1194635187821174
    89   3      3.9652522843579399      10.357711624023034      10.126279679893493
    90   3      6.1803366961738657      8.0482255130689584      10.212994103628414
    91   4       7.719930810036657  -0.0056282200125920339   -0.036388080718565578
    92   2      10.095279382745852      2.0325314255285134      2.1400261606922881
    93   3      10.161412804501222       1.987456648428408   -0.057406766416675276
    94   3      8.1521852791671918      2.0882067342597326        2.01158706973195
    95   3      10.250221359148162    0.044707518948370967      1.9711453160975034
    96   4       8.047194018879761     0.20390512740611527      4.4702583264297759
    97   1      10.153432881753821      2.0347521534147002      6.1323591455472588
    98   3      10.212113586218363      2.1257551638331069      3.9943103307737222
    99   3      8.1260032130592936      2.0661713975873073      5.9563207361374664
   100   3       10.07183107900768   -0.024995580261562251      5.8122317177451759
   101   4      7.7665404567743241    0.077184745536212324      8.0384565980856859
   102   2      10.062700353632939      1.9616084101204756      10.032696676107644
   103   3      10.170549414941933      2.0442857552265541      8.1552970023021345
   104   3      8.1796214298209282      1.9313421541862943      10.132403169177374
   105   3      10.392535803674823     0.02660727317132704      10.145774629744638
   106   4      7.7605353233432446      3.9610149453336012   -0.057583646678374525
   107   2      10.087489407766284      6.0604759150938508       2.141271471582082
   108   3      10.153266339656579      6.2515640438090294   -0.072494220285980127
   109   3      8.1821542667980243      6.1506851095073971      1.9639650544774934
   110   3      10.198335444021319      4.0897014226486927      1.8552715381156508
   111   4       7.951138682527441      3.8077802048869018      4.3807208193769807
   112   2      10.086734829147435      5.9596405983590524      6.1741275140366501
   113   3      10.285456835942712      6.0872173703534127      4.0167024121157278
   114   3      8.1965821359541859      6.1324596094882038      5.9463685325343398
   115   3      10.174072038885798      4.1052295099030101      6.0764570937969768
   116   4      7.8476163063888134      3.8339561978316867      8.0106579347571163
   117   2      10.100650217145335      6.0545924914970044      10.225192262718389
   118   3      10.162397718364756      6.1922186731593394      8.0740429591767366
   119   3      8.2070531485950351      6.1338479130903059      10.182865331314707
   120   3      10.246511601600274      4.0468026530936854       10.10425230130738
   121   4      7.8495806851813645      8.0067796500868962     0.20218374971155612
   122   2      10.108378077664032      10.184251169358971      2.1565087138948593
   123   3       10.01461564515882      10.041633230230808   -0.040298436592725716
   124   3      8.2047611865719112      10.107566126416723      2.1134186567155124
   125   3      10.284348118487573       8.108829724207272      1.9547095964173189
   126   4      7.6772499239941316      8.2236213978211232      4.1327430419508868
   127   2      10.105026587629323      9.9733133993707792      6.1970811242694879
   128   3      10.344310458926806      10.206096873688766      4.0434456701515264
   129   3      8.2035941980933877      10.172230492525145      5.9233317569029804
   130   3      10.278296704379876      8.1161585679185837      5.9637837563605318
   131   4      7.6722830436736595      8.1940244939129467      8.4314998137653916
   132   1      10.122290812842163      10.042700624836224      10.154176958083854
   133   3      10.171082892714354      10.188621422820932      8.0811919843823681
   134   3      8.1116798993446491      10.160252394269586      10.173340275089895
   135   3      10.402920909632575      8.0280426852280993      10.174061960491603
   136   4    -0.32817740799742068    -0.24812444782070456      11.824711572674886
   137   2      1.8934141945862357      2.0658342476163156      14.207383015520509
   138   3      2.0805084811363863      2.0232025378753256      12.092890656085727
   139   3    0.020584660870456104       1.977841215831609      14.280767403756773
   140   3      2.2706660124048677    0.063684470733873427      14.117049592722802
   141   4     0.13051330694778693   -0.082941920034781874      16.588503333079412
   142   1       1.984473760003876      2.0534166587690503      18.240745376404885
   143   3      2.2448613576865304      2.0275188130660506      16.105506435812828
   144   3   -0.025839071314637568      1.9777215875355159      17.973894472212294
   145   3       2.149649713351574    0.027169322401445282      18.180580357536474
   146   4     0.17189712431129917    -0.38930718042622287      20.226935766058705
   147   2      2.0038273431611264       1.999010182059592      22.171437973918405
   148   3      2.0691390406719434        2.15043791252242      20.285891491125575
   149   3    0.083631948528871722      2.0131363562361533      22.382098057137025
   150   3      2.2126194270987871    0.088985391826843743      22.286997317155503
   151   4    -0.41283667769983651      3.9978011280517696      11.984169790695775
   152   1      1.9347333284934483      6.0379590455552536       14.15859568724577
   153   3       2.016200922001778      6.0710536422134345      12.055645146090066
   154   3   -0.064030384123770587       6.212459552357612      14.015485375014348
   155   3      2.0851799748181765      3.9801015198370342      14.078558028666093
   156   4    -0.25307819733873682      3.9340295436312314      16.414639486628719
   157   2       1.973373610352013      6.0319192970774287      18.083061046698958
   158   3      2.0630405755342953      6.2308166124502335      16.206168939583492
   159   3    0.084480125128979192      6.1491469518445898      18.342698047337628
   160   3      2.0412658445274019      4.1217244240207611      18.096187523633315
   161   4     -0.2757113686211114      4.1781958992166652      20.150698838554003
   162   2      2.0139486900957739      6.0044673273033462      22.135786610779434
   163   3      2.1751014658503567      6.0425155010248766      20.270902658241997
   164   3     0.10422745233068809      6.1400826246531874      22.271654768243174
   165   3      2.0215199947674893      4.0976524382404591      22.495619958992808
   166   4   -0.030923274829614329       7.663853196869554      12.132778830995498
   167   2      1.9374100272769481      10.002277954987083       14.03219831520525
   168   3      2.0550382324340992       10.30748672158194      12.127984167715976
   169   3    0.049718006718872026      10.121274818646558      14.191668417140074
   170   3      2.1212446438054888       8.149486857573411      14.048116914916335
   171   4    -0.53870528534775286      8.1512744841392273       16.23437104681371
   172   2      2.0158362415134494      10.078144800182375      18.060592911284637
   173   3      1.9648770586014193      10.075885008069418      16.183937957609796
   174   3    0.073662786116294246      10.074548988566214      18.471429808791285
   175   3      2.1395262273896596      8.1268228966590357      18.408820483476351
   176   4    -0.30127190654986202      8.0878206183237076       19.94197571058335
   177   2      1.9386661326019345      9.9865542629752291      22.269360307785679
   178   3      2.2394198756157784      10.213865118263042      20.332663288862332
   179   3    0.053517094861855248      10.039366887746841      22.167967973348393
   180   3      2.2519491825618987      8.0995329731292092      22.312511834099595
   181   4      3.7594971003585065    -0.11687349907726433      12.241151768791301
   182   2      6.0110802461056672       2.013127286907987      14.259498297996917
   183   3      6.3080842507042947      2.0553907229672594      12.116733023683384
   184   3      4.1296968987824254      2.1131515987892766      14.005336161311945
   185   3      6.1408802775223235    0.016769561039307435      13.951679032018129
   186   4      3.7403335284052774    0.018009730365681455      16.489746427968903
   187   1      6.0967185037814637      2.0234510748784089      18.203897098475636
   188   3      6.0996773887043911      1.9002439616325644      16.132100105443797
   189   3      4.0701755996531199      2.1902274685068117      18.206802390902993
   190   3      6.2387000404926747   -0.039651759709067966      18.234268081691219
   191   4      3.6555476916662681    -0.16855156949055711      20.055650192446876
   192   1       6.008433985329221      2.0026003086096922      22.296602790886038
   193   3      6.1766091428241374      2.1612490002161651      20.249053384101501
   194   3       4.009673743330155      2.2593247177051654      22.316101308625733
   195   3      6.1895962043756878   -0.032798976778990629      22.244961450647818
   196   4      3.8889334207454898      4.2714599102340118      12.541164209709292
   197   1      6.0793017110314764      6.0148319286271681      14.178769603618301
   198   3      6.1809393702939852       6.042131662434068        12.1433136003734
   199   3      4.0385191045878965      6.0962738203777702      14.067594384206041
   200   3       6.296961987668297      3.9512102164614138      14.159495825642306
   201   4      3.9650640455927628      3.7469180615041684       16.50953724504139
   202   2      6.1033648556408808      6.0176123943252318      18.210312276335038
   203   3      6.0438937271439368      6.2687330422077823      16.227341998605588
   204   3      4.0486480069868129      6.1608826022845689      18.238756442511626
   205   3      6.0808982674215386      4.1009181650045141      18.124072412329316
   206   4      4.1944737327240045      3.5714149892203588      20.099339548789985
   207   1      6.0474587158114685      6.0900889424019535      22.279032764062315
   208   3      6.1735404282353139      6.0050048870614869      20.226554359899271
   209   3      4.0153188867369405      6.0656969553362261      22.542980943300886
   210   3      6.2265252096634187      4.0771957867018145      22.436535580861968
   211   4      4.1689577853423065      7.6356848855301145      12.104431433486388
   212   2      5.9058045334338498      10.013024007621951      14.247486947082692
   213   3      6.0293511588247268      10.290927917375333      12.242958212614845
   214   3        4.02132483395597      10.225423997842706      14.258923605115767
   215   3      6.0492070485199001      8.1330568931525935      14.105749465716523
   216   4      4.0294918041331504      7.6436488791641448      15.888009838490884
   217   1      6.0550478138677448       10.06909506513243      18.225695987523984
   218   3      6.1877962878042538      10.172516762543777      16.144959973455414
   219   3      4.0047805446299751      10.278217899069338      18.243564521163897
   220   3      5.9991870931660065       8.089696392600553      18.507919352882983
   221   4      4.1041433042881996      8.0144799079502409       19.93480714554622
   222   2      6.0239922391593677      10.073362077990982      22.289381455911268
   223   3       6.009638300378553      10.393409247049085      20.309678341377783
   224   3      4.1081368870531199      10.293171932296582      22.411475247682649
   225   3      6.0325006008956299      8.1722495971328932      22.147381901268805
   226   4      7.9045020313537444    0.090246382639978542      12.231958714165309
   227   2      10.118521057196887       2.034908405665663      14.292582089234235
   228   3      10.255131519565406       2.054608063397489      12.116722076955051
   229   3       8.173918808994765      1.8439270494706641      14.160506494912067
   230   3       10.30997123646978    -0.02637809082984818      14.020277653555487
   231   4      7.9321273944195543     0.07127149550798384      16.513259088145432
   232   2      10.033326740416674      2.0869019448656956      18.351512844447555
   233   3      10.265916155967322      1.9145369606085509      16.190709894679781
   234   3      8.1682723467753533       1.969543284935928      18.110151938339619
   235   3      10.252305809483422    0.055309318708027751      18.184417565244832
   236   4      7.6431354575380173     0.19899191145212877      20.374872261876167
   237   2      10.057875162224928      1.9236592419561602      22.348253635682486
   238   3      10.135834036154916      2.0940249695149165      20.245795139659474
   239   3      8.1586011396554152      2.0178673161154581      22.226921753691176
   240   3      10.232998585194053    0.036098837893947029      22.200228775188439
   241   4      7.7431238575440773      4.2569201628880746      12.163551326544951
   242   1      10.117244202433898      6.0760430560649334      14.158953471385676
   243   3      10.327751801719693      6.0552153033113969      12.135672406355051
   244   3      8.1140731983888372      6.0880955002932362      14.380220541117204
   245   3      10.098408879990938      3.9750345123674609       14.20434306991344
   246   4      8.1476099623798195      4.3357203705362251      15.937013271093589
   247   1      10.040160158295981      6.0811883674106477      18.251312896016422
   248   3      10.222674383767979      6.1041709898537126      16.204667019179972
   249   3      8.0510179442216678      6.2482642881781816      18.107838553228117
   250   3      10.219874648143934      4.0049081917310509      18.118459383007966
   251   4      7.6607320951144962      3.9483423353964602      20.499930127028154
   252   2      9.9977921045426346      5.9750252289366257      22.325566525704478
   253   3      10.316491441877883      6.1103962183080833      20.284513093400001
   254   3      8.1430032325789323      6.2542128264588124      22.191083713085625
   255   3       10.07587683326196      4.0716996469854685      22.272616190519951
   256   4      7.6772795998723886      7.8853612799559736      11.983442659801359
   257   2       9.969741992779122      10.106270227841602      14.179140769976275
   258   3      10.362299609048797      10.125396318924448      12.222407492331081
   259   3      8.0921472239152124      10.145383731315968      14.111133823736727
   260   3      10.324047810617833      8.1752097314639087      14.181654385088622
   261   4      8.0748409854674819      7.7175908459942031      16.045828895303401
   262   2      10.019515502921218      10.128123741054253      18.308589011761644
   263   3      10.219644890715553       10.19066732435132      16.173601547998771
   264   3      8.1409121313954493      10.171478811241631      18.201109887858646
   265   3       10.30519061942676        8.19603636272101      18.218831068544912
   266   4      7.7975718900811311      7.8983338396665257      20.222563345798303
   267   2      10.117728629974517      10.005508293047766       22.38492219224846
   268   3      10.262621906294507      10.179107495542601       20.18409047839901
   269   3       8.148206403343627      10.084042505488837      22.060998700713021
   270   3       10.29146810884253      8.1167273629250136      22.093858298258397
   271   4  -0.0090997245221436894      11.736354304490778     0.30022839107167942
   272   2      2.0048634207499734      14.140828566126636      2.1259479771196799
   273   3      1.9983630656501135      14.316188545700378   -0.032464833054775918
   274   3    0.047645092118716662      14.272195792995845       1.970629140544504
   275   3      1.9910087236145564      12.210279336196736      1.8764891175609726
   276   4     0.23880156227398225      11.643265756433113      4.0005483856287025
   277   2      2.0186600484791595      14.108594515284032      6.2168515124920596
   278   3      2.1195219269877632      14.123544423997208      4.0297370275952336
   279   3    0.043662496694473751      14.366029419960316      5.9834332744488385
   280   3       1.971833339543374      12.231530141757682      6.1838296754766455
   281   4    -0.18659854072895868      11.931344092799106      8.2214478016739339
   282   2      1.9841061445942672      14.072818975710568      10.254749753959057
   283   3      2.0262605407540684      14.401574066328907      8.1096752888253913
   284   3    0.082630982785051113       14.44544981148124       10.06602520078247
   285   3      1.8994239691699484      12.206833799496446      10.038255567720869
   286   4    -0.10634707061879756      15.877599201309129  -0.0046342402562792291
   287   1       1.977531150434348      18.156264129076014      1.9974450955534091
   288   3       1.837060611995309      18.256833141156591   -0.055507020970923186
   289   3   -0.051278679991607873      18.442101635840796      2.0381407841581276
   290   3      2.2320661716787935        16.1307938554807      2.0668472899529347
   291   4     0.11074224976302133      16.220165800169362      4.3662204045546309
   292   1      1.9867472571122597      18.197291781121116      6.1336336418437973
   293   3      2.1554053617652702      18.327547590493651      4.0333803345775259
   294   3   -0.052415542720746944      18.205694763648975      5.7922228908170625
   295   3      2.0513498460892334      16.166788260158416       5.806450333873082
   296   4    -0.18335883861707242      15.998168821079915      8.3135179497271796
   297   2      1.9555304166288521       18.18341787415406      10.076426808276723
   298   3      2.0842094458250386      18.275361155290366      8.1636633812093855
   299   3    0.023127225511358908      18.143139366090892      10.142426445347091
   300   3      2.2288782676117669      16.262832434228944      10.173665477833456
   301   4    0.066182245206678786      19.927968263506713     0.11858240726709329
   302   2       2.066130961650948      22.204038108776839      1.9466860525585403
   303   3      2.0080321925482147      22.537381921763199    0.043877239999058432
   304   3    0.076633328038452894       22.44441936681741      2.0967106529882829
   305   3      2.0407752191842397       20.32782121703978      1.9875336676049946
   306   4     0.20448576348751582      19.842510099393287      4.0699084316755707
   307   2      1.9408392784230892      22.164612333450766      6.0741484730079662
   308   3       2.185968996104938      22.397540570033456      4.0716622370696323
   309   3    0.054119524545430349       22.44716212447787      5.9260114350847921
   310   3      2.0185009546590535      20.306545848229455      6.0971930940975874
   311   4   -0.038005598716285761      20.436297765757708      8.4967373892634566
   312   1      2.0317028751003061      22.270404901128426      10.153888452484907
   313   3      2.0481923277789522      22.470127313853542      8.0054216557446498
   314   3    0.011645938163994431      22.419310509105006      10.073292127268758
   315   3      1.9006707895435342      20.241718207910509      10.113761011209581
   316   4      3.9091169713858784      11.787156489656187     0.33674432096509388
   317   2      6.0358033236001916       14.13700289624763      2.1750848346038429
   318   3      6.2422158068466169      14.184318921112064   -0.017827166116895627
   319   3      4.0812173193723735      14.103445525911871       1.845760958627729
   320   3      6.2646983332016539      12.207402185667295       1.918944311744492
   321   4      4.0160835844845302      11.607105705794662      4.0902686269871937
   322   2      6.0215847071595672      14.108169704908367      6.1533590849984492
   323   3      6.0520634212529814      14.195397390351197      4.0780227490028231
   324   3       4.070308840151851      14.237313242723621      6.1112437873965284
   325   3      6.1966097061394176      12.231027834391327      6.1082431381976265
   326   4      4.1434040421935885      11.675494545013398      7.9901583210024887
   327   1      6.0832467646986936      14.152472507578613      10.143833019992041
   328   3      6.1179795169138931      14.340653052427689      8.0678682069832455
   329   3      3.9879122183140416      14.242900211864827      10.127896305263238
   330   3      6.1723767088362731      12.164978655720059      10.224342984373964
   331   4      4.1332584693766856      16.358209103084377     0.40740899478529358
   332   1      6.0697820940841254      18.143944712757005      2.0880329350540743
   333   3      6.1198150909555062      18.303446315582182   -0.010301021980290001
   334   3      4.0333859175854396      18.285226472418081      1.9079734476381522
   335   3      6.0098789983741208      16.129812736867247      1.8933275465081276
   336   4      3.6655656954484002      16.378163598665815      4.1371489827132475
   337   2      5.9694617779236401      18.141812141276638      6.1071596311256346
   338   3      6.0300934411124008      18.434370652062864      4.1395987875349531
   339   3      4.0824624887932535      18.337095220998297      6.1478356083980241
   340   3       6.097026560677473       16.26031498035454      6.0650677790228711
   341   4      4.1690286252156685      16.037757821165869       8.458086415080416
   342   1      6.0466288617082915      18.272671920836981      10.161565943968426
   343   3      6.1856125002490705      18.349405520478133      8.0703386089050451
   344   3      4.0149704429051791       18.50761406321465      10.130885392565949
   345   3      5.9372877020873656       16.25091298667742       10.08683994655774
   346   4      4.3890709329544215      19.890364622072969     0.25765077268129427
   347   1      6.0619192857638451      22.289239975017065      2.0404240603612323
   348   3      6.1700919087518535      22.414190527447687   -0.039322270766871531
   349   3      4.0031893790085933       22.49092405079957      1.9961296274421227
   350   3       6.132428930794938      20.273263480827769      1.9614625343779355
   351   4      3.9557398780152098      19.851359164658369      3.8151084103624906
   352   2      5.9822639246512557      22.242739487836563      5.9783894794760375
   353   3      5.9615446510930621      22.281751262564651      4.1006575314234581
   354   3      4.0725870237656956      22.391343354623483      6.2000416267576783
   355   3      6.1477206741103592      20.325552138076308      6.2296193989261361
   356   4      3.8650247200488419       19.95915979235653      8.1872858014964809
   357   2      6.0049477583552262      22.278768642063351       10.14581104638736
   358   3      6.2779598088596043      22.411017738068239      8.1263598328043596
   359   3      4.1230134817167139      22.282927741783883      10.042426114762224