(written by ASE)

1080 atoms
4 atom types

0.0      24.299999999999997  xlo xhi
0.0      24.299999999999997  ylo yhi
0.0      24.299999999999997  zlo zhi

Atoms # atomic

     1   4     0.23973503758041342    -0.23613989391824391    -0.25063230178653007
     2   2      1.9877602176137068      1.9013519996982005      1.8944793536116613
     3   3      2.1084907063038707       2.109561834188602     0.02546259629787917
     4   3    0.040259563452098558      2.1821719668403854      1.9984334804041457
     5   3      1.9029474787943725    0.008720252192313472      2.0180588989810704
     6   4     0.01173353533268756    -0.23641748789530331      3.8171554635647222
     7   2      2.1278603674910794      2.0460433864317511      5.9321707297374378
     8   3      1.8862393490447051      1.9700747195723878      4.0590276695743244
     9   3   -0.052052422836761127      2.0651445383353169      6.2945485673679435
    10   3      1.9286837840990005    0.047556577367370831      6.2784466105346244
    11   4     0.21729059776720308    -0.25419367166895163      7.9598521703837637
    12   2       1.980698697425874      2.0065401689553148      10.034025260610056
    13   3      2.0283313909447185      2.1035132607315541      8.1568895683042939
    14   3    -0.05830183542539686      2.2464226119487321      10.177969364655596
    15   3      1.8540545506902764    0.089223952670054105      10.208548099116697
    16   4    -0.39250465811835794      3.8375358652968501     0.16885816005665316
    17   2      2.0689131043159557      5.9166673686129565      2.0316717040385477
    18   3      2.0696818178103893      6.1727438902437424    0.030505665862095167
    19   3    0.081143862882032819      6.1554291804689187      2.0141266844893382
    20   3      2.0966101720218799      4.0428111326366754      2.1456691455152241
    21   4       -0.29352691807219      3.8929294168011102      3.7217834390342301
    22   1      2.0653113865393014      5.9814047960798344       6.023824713002746
    23   3      2.0007300447257803      6.3166180471327795      3.9851159646001331
    24   3   -0.032919675987944444       6.073211494714311      6.2741168894413324
    25   3      1.9306430833396528      3.9601707207313792      6.1378008607777703
    26   4     0.16716819085307222      4.1061521381419226      7.7573081154668788
    27   2      2.1253089920323176       6.128010048965697      10.080050572603406
    28   3      2.0381877909983932       6.000364687756238      8.1729186818670918
    29   3   -0.084380561727742304       6.024397368767433      10.189375429432394
    30   3      2.0073401192431395      4.0694715229249558       10.36748670660881
    31   4   -0.098301647581440443      7.7667144930722856    0.029653411609206887
    32   2      2.0437899650152334      10.080108154457797      1.9753666540007961
    33   3      2.0055195571821911      10.365919605099988    0.082856220997219066
    34   3    0.046378052318395903      10.408853289145631      2.0682990368413585
    35   3      1.9041407835747439      8.2035563715977169      2.0129373091547134
    36   4    0.045574521176968898      7.7662488888712318      3.9219356216645753
    37   2      2.0535773712335517       9.985720614653836      6.0916559806207804
    38   3      1.9547315158065723      10.194231514179368      4.0905866317894688
    39   3    0.065621546448556986      10.313032008120254      6.1518094076833112
    40   3      1.9134830480955027      8.1131284493715956      6.1937070272446384
    41   4   0.0033945559487211646      7.8879746809621993       7.808982940731739
    42   1      2.0498468257432685        10.0660070362807      10.100385465282477
    43   3      2.0350349368013356      10.367029354299872      8.0575013259361583
    44   3   -0.063474133063954968      10.369331410757539      10.134696777700265
    45   3      1.8394772907733132      8.0460333917457252      10.166187082007296
    46   4      4.0690793812900043     0.23646582887374454    -0.48067796566899262
    47   1      5.9738269794403482      1.9966577859959098      1.9750707627820572
    48   3      6.0890357551157654      2.1153189744531407   -0.046927685680158031
    49   3      3.9641916849083971      2.0038071288490813      2.1863386200000394
    50   3       6.223320134166018    -0.02648538230520155      2.0102088191146068
    51   4      4.1700747552836726    -0.19626191711007124      3.5226810130883708
    52   1       6.103433521326413      2.0095217161018062      6.0772529694696935
    53   3      6.2017937531658589      2.0251654085061452      4.0533238226065436
    54   3      3.9998799316392204      1.9632730879983451      6.0597432567286278
    55   3      6.0794721549388591    -0.03947161132685318      6.2898679700618905
    56   4      4.3707110265403184     0.17046050768888438      8.0141216685191434
    57   2      6.2563257444952649      2.0415075826892362      10.180804265508502
    58   3      5.8365590387493507      2.0842722600743184       8.177100402088433
    59   3      3.9024718019039049      2.0095172351677189      10.333235271465789
    60   3       5.929813606842087    0.075159804251830747      10.064572037332724
    61   4      4.1709044189226656      3.6742640886559892    -0.26922022663823514
    62   1      6.0629059653658022       6.067863176655079      1.9790540788271964
    63   3      5.9356515824776563      6.0754064099200233   -0.076133031685750557
    64   3      3.9963857384313943      6.2995020292495161      2.0904191824339948
    65   3      6.1012987211108349      4.0538607833594673       2.133763864095779
    66   4      4.3960967116002934      3.7283320795154888      3.8254700553289918
    67   2      6.1498988476491814      5.9908919921862465       5.970276781755004
    68   3      6.1120369857796817      6.2256367968322799      4.0621889940989266
    69   3      4.0919637552742749      6.2832118067875928      5.9990937926733601
    70   3      5.9612852732475794      4.0644833711727308      6.0558164926296483
    71   4      4.4204771922424868       4.028487682050419      8.0467211360539412
    72   1       6.126351774963041      6.0084396505530275      10.097164551831106
    73   3      5.8536448022694598      5.9916517778422387      8.0726785896284685
    74   3      4.0137215340012187       6.154159730176425        10.3429041589491
    75   3      5.8221253629496932      3.9913490456517504      10.172457586355973
    76   4      4.1829437205164304      7.7722796318621468   -0.066193981524072548
    77   2      6.0911057813601666      10.035877375160988       2.016556543660343
    78   3       5.914668741765551      10.350026271869254     0.03845447191776151
    79   3      4.0060718295193807       10.14638598583702      2.1568109610393349
    80   3      6.1590058142938391      8.1685912147625519      1.9348070333565659
    81   4      4.0534675840512184      7.7146838995224067       4.049243284926634
    82   1      6.0820784991325425      10.063165196713781      6.0565727910404696
    83   3      6.0761005687913174       10.23834776119212      3.9952185431336291
    84   3      4.0097308975391526      10.183998879030648      6.0896896693945832
    85   3      6.1742260357350718      8.0543954220212068      6.3420719716621132
    86   4      4.2967949713821367      7.7857759077563982      7.8642715841943511
    87   2      6.0765247468708345      9.9392486051467426      10.132941185744457
    88   3      6.0518492380822391      10.368597679800013      8.1555424618225363
    89   3      4.1012117049453476      10.282051301504183      10.128508981845505
    90   3      6.1152964199412256       8.080043358125522      10.013676838091422
    91   4      7.7771170156286686     0.30197527946741182     0.21949501623639356
    92   1      10.183459031915994      1.9619932125748718       2.001885752803982
    93   3      10.218452032907029      2.1275952846138875  -0.0085104462517866884
    94   3      8.1080914658077798      2.0844898834096552      1.9485664852944795
    95   3      9.9984909220945468   -0.067968819513708631      1.8629601253966575
    96   4      7.7798050620556429     0.28069794649974716      3.7501435943211248
    97   2      10.145571939796493      1.9951782184009781      5.8779186322870878
    98   3       10.06939103770047      1.8838672211177618      4.0190772787837865
    99   3      8.1604709975688436      2.0537337487327538      6.2512352775482816
   100   3      10.135123513511356    0.036184049168419191      6.3521255577610942
   101   4      8.4163496771704622     0.24800487199895857      7.9825066598987817
   102   1      10.218794636464343      2.0585302096544784      10.102130610104458
   103   3       10.15062222483605      2.1927501737207118      8.0994031287598496
   104   3      8.1189462714689338      2.0692199855879791      10.072013690337721
   105   3      9.9638936516224881   -0.015409264587051179      10.001372633708085
   106   4      7.7510261741206321       3.786902348783507     0.28082124823344506
   107   2      10.131420661697936      5.8875750697597296      1.9989604180604428
   108   3      10.178368891746246      6.1276464006368405    0.031126211570483685
   109   3       8.145650628628891       6.043192865501462      2.0033049436841823
   110   3      10.310081769603135      4.0238355544326891      2.1196681405150155
   111   4      7.8550521604006915      3.7446889744962846      3.7200199164865633
   112   1      10.138552032540051      6.0076215737242702      5.9843350765628882
   113   3      10.116473907904552      6.3347070034236728       3.968554265233418
   114   3      8.0816163773469754      6.0143582717701953       6.259087696548356
   115   3      10.216317358637875      3.9795914463635182      6.1023478334234422
   116   4      8.3818012471273136      3.9101836731186972       7.821315687607747
   117   2      10.174549206282258      6.1085877611085939      9.9754429092629948
   118   3      10.256581112214199      5.9523752242067092      8.0944440396277013
   119   3      8.1771043185632308      6.0477512495863124      10.144982562706476
   120   3      10.242178688850883      4.0989538944991057      10.396708181225346
   121   4      8.3539800263717385      7.8381679855536186    0.038705532237533452
   122   1      10.060678608101814      10.123378742994491      1.9910426656053153
   123   3      10.040404996714919      10.480967794797005   -0.059949312263069585
   124   3      7.9929465475833501      10.426285003547628      1.9801712614797473
   125   3      9.9132237571228892      8.1230709630887237      1.8425311093676662
   126   4      8.3140956954235463      7.8675909732375056      3.7552857441316756
   127   2      10.112894282170339      9.9953663897397096      6.0515406174496462
   128   3      9.9803028677547196      10.161647672976398      4.0747890975280576
   129   3      8.1073472889994385      10.346041989952587      6.1263729103678095
   130   3      9.9278513645023576      8.1024608694228544      6.2111444948159509
   131   4      8.0394399631541855      7.8780465976558256      7.8211716671547498
   132   1      10.124806290525996      10.092868129282772      10.058992223735803
   133   3      10.087516831919544      10.421951501506349      8.0462848345587226
   134   3      8.0318844929342124      10.370838660760388      10.100054458709966
   135   3      10.150595378560528      8.0594607633031856      10.164781709705654
   136   4      0.1727840870371507    -0.24868570864818942      12.050117138601134
   137   2      2.1316472140345808       2.019420732509821       14.13024559037507
   138   3      1.7927972694848104      2.0265076492359144      12.231450074866576
   139   3    -0.12171133799407748      2.0434163842748378       14.45671055054051
   140   3      1.9343050980728631     0.05646931404809824      14.347655996673652
   141   4     0.16118826646512638     -0.2430514711262495      16.033855486810367
   142   2      2.0268973278576241      1.9411843769326571      18.214734859731283
   143   3      1.9653942693360948      2.1963889157973631      16.236898679502278
   144   3   -0.082255022971636671      2.2508747838324092      18.227646200383099
   145   3      1.8450386393079434    0.053786144700843509      18.186304974009786
   146   4     0.21884144488336199    -0.27000845152600678      20.123220052484299
   147   1      1.9650607013169397      1.9948834592705933      22.225809354676539
   148   3      1.8487373577729753      2.0937295938652003       20.18481348046971
   149   3     -0.0814479045938485      1.9966607228304718       22.35795664175928
   150   3      2.0444428865590205    -0.05822406290459764      22.467742360520003
   151   4     0.29582847729831957      4.1205273780828993      12.091714885401975
   152   1      2.0428322277027116        6.02704202371969       14.16470618533778
   153   3      1.8040664550748355      6.1612455263240165      12.157876850680379
   154   3    -0.13196853701142272      6.2313068117034893      14.370020493134211
   155   3      1.7720940872443696      3.9986025810882873       14.17757805937473
   156   4     0.17900755469180435      3.9382852098631425      15.987684498158607
   157   2       2.105028448883294      6.0689140674627842       18.15200733880026
   158   3      1.9667256153057657      6.0949530482096481      16.248937641540358
   159   3   -0.074220251510463034      6.1322027233204022       18.35038755727895
   160   3      1.9392553940347106      4.1267824932368056       18.35002075937761
   161   4    0.095884501188822246      3.7627567167339437      20.154465976219015
   162   2      1.9927100967817182      5.9432593587175679      22.251199390442334
   163   3      1.9195463665220565      6.2406496361337256      20.330976603908624
   164   3   0.0054522528879087997      6.2156453033536989      22.390013919011022
   165   3      2.0103182525571679      4.0941052758308611      22.256596944012543
   166   4     0.28945103304174508      7.9661852219754481      12.037427002334677
   167   2      2.1196020256682044      10.049656674998705      14.197335025505836
   168   3      1.8546189248120737      10.142362264360363      12.236126918371493
   169   3   -0.082521121049769802      10.186475532562095      14.336086973363019
   170   3      1.9015929142237864      8.1492744003562159      14.270206846109229
   171   4     0.23693902304905598      7.9502663009504229      16.064698203717885
   172   1      2.0441756635500887      10.113263217423389      18.202905478147883
   173   3       1.916012131232208      10.295059240777471      16.161068029077523
   174   3   -0.083736041215775978       10.31426305278535      18.320758695324663
   175   3      1.8059715021368572      8.0614072362191074      18.262870443746372
   176   4     0.14208251785639134      8.0194497144871022      19.985275403900474
   177   2      2.0479503618317922      10.041291538002932      22.215490762176632
   178   3      1.8591266756895559      10.157208874307226      20.340299837596294
   179   3   0.0053736700230032604       10.29263935395239      22.495317126015483
   180   3      1.9667062210244459      8.1760242363590461      22.437256623963385
   181   4      4.1782625215909626    -0.14811650141653343      11.749120298408911
   182   1      6.1143051132394781      2.0097575628569921      14.133545366586224
   183   3      6.0209063051840248      2.0102040416461739      12.104113629827363
   184   3      3.9850123393020356      2.0870215910154961      14.140994376798279
   185   3      6.0153105837812291   -0.012498116246256484       14.36817058298441
   186   4      4.4064204870508554    0.024248482807284609      16.248261984154134
   187   2      6.2734943646327022      2.0679255336365183      18.218033885850957
   188   3      5.8256945215893765      2.0634072548838036      16.256548050564849
   189   3      3.9333574978459427      2.0158919856775017       18.28987675565746
   190   3      5.9162306634752131    0.062147831014684254      18.132017075252634
   191   4      4.3142254920924943    -0.20712475962351959      19.913777769361257
   192   1      6.1236395371759809      1.9745946771233758      22.189547121679137
   193   3      5.9851404423636909      1.9723515279042134      20.167356110971326
   194   3      4.0303761825618754      2.0893533994443811      22.322228069224057
   195   3      5.9612578129114828    -0.07300588717017055       22.38097313550157
   196   4      4.2879407981177566      3.8880946636709339       11.99167168028997
   197   2      6.1486917169868356      5.9639697245171259      14.162379866755787
   198   3      6.1356105482331564      6.2422800486857737      12.204101208174805
   199   3      4.0853275091735899      6.2636663425091781      14.088821272071179
   200   3      6.0437836108582683      4.0579276178767074      14.185677397307835
   201   4      4.4074194967668179       3.972083563518261      16.229700828958627
   202   1      6.0863357111284904      6.0268879299260867      18.229338652742662
   203   3      5.8438703458916041      6.0212132271759193      16.184707345364952
   204   3      3.9784996724139465      6.1920632630928996      18.380148375772489
   205   3      5.8788425097842163       3.986790631805643      18.243793097123362
   206   4      4.1901023961037431      3.6240561801605278      20.324593065524674
   207   2      6.1669764248353669      5.9805911094188389      22.268965253197379
   208   3      6.0323624276702672      6.3603619949306873      20.320601834467688
   209   3      3.9745953818278128      6.2264304040920901      22.262070642646819
   210   3      5.9821376811004621       4.095934914159634      22.145031504125527
   211   4      4.2234181879265638      7.7524054213413365      12.226133167514346
   212   1      6.1165090189137015      10.132208243272947      14.142139439524636
   213   3      6.0361557990028896      10.150896399800212      12.090281689754002
   214   3      4.0059723402974381      10.197609680839829      14.187140433224286
   215   3      6.0778669685876139      8.0954883930237003      14.425274872781642
   216   4      4.3010740546619655       7.838401119980114      15.987885375483245
   217   2      5.9358016451951841      10.064381053047018      18.126269965135585
   218   3      6.0142538705405615      10.359863741914937      16.258618016980684
   219   3      4.0606329334471685      10.207983487803574      18.329387658866317
   220   3      6.0138666685840461      8.1643568662485819      18.167946894446303
   221   4      4.2099146350154921      7.8762749170853619      20.132499979982803
   222   2       6.171316013516388      10.114833484065784      22.233649036793256
   223   3      5.9889898937985153      10.053107156161101      20.321147287761214
   224   3      3.9515639903745337      10.214674210526773      22.372963852954232
   225   3      5.9381315373759449      8.1782846805734231      22.435717873305549
   226   4      8.4284873785765537     0.01039299417672245      11.985017889069059
   227   2      10.240102138800559      2.0423340395472116      14.076975575818574
   228   3      10.046189248132471      1.8064411951659838      12.174317538997951
   229   3      8.1760997941843918      1.9571236644411201      14.442291451840491
   230   3      10.165427198773076    0.041862214607173744      14.459375665461677
   231   4      8.3502873883393782     0.15369987516308858      15.985857826621862
   232   1      10.213932936734832      2.0133728582722195      18.190165368504893
   233   3      10.223933780529123      2.3134210496054681      16.179491299851911
   234   3      8.1338985594129145       2.068564524917027      18.107881521296303
   235   3      10.139765318157348   -0.016529495745618825      17.957403937736505
   236   4      8.4766260992952951     0.11202834592488159      20.481572385492864
   237   2      10.179814312419907      2.0694095042582621      22.431409666674782
   238   3      10.056232058132975      1.9340459723936017      20.214608806967711
   239   3      8.1669322249961347      1.9836686593934179      22.185570562359306
   240   3      10.210495491471178    0.055073218709550842      22.213706020765894
   241   4       8.514703173579516      4.2223532607368943      12.026567891371201
   242   1      10.178224805650837      6.0737746681436589      14.180040393223136
   243   3       9.938148648707406      6.1752697644742502      12.175191789510507
   244   3      8.0811494053008737      6.1663414306881501      14.349786063896662
   245   3      9.9890477817025722      4.0157861865028419      14.047244344740065
   246   4      8.3730283373174519      3.8427618455930594      15.939525150302202
   247   2      10.014522454431818      6.0001646330330356      18.199071158481914
   248   3       10.27106891844736      6.0363910496624174      16.287739164887057
   249   3       8.132528092270352      6.2212360489721492      18.271507922301744
   250   3       10.14867042924554      4.1334196893968542      18.466053248334788
   251   4      8.4244704488429161      3.7493874309700121      20.354421239990707
   252   1       10.12981527008259      6.0140283491681314       22.28331749318798
   253   3      10.098097427443664      6.4227305233493368      20.218260156447169
   254   3      8.0569728469311848      6.1880022240406767      22.247153735798591
   255   3      10.130296788710833      4.0067190206862344      21.992466512024372
   256   4      8.2673854399687521      7.7937553014777734      11.945262225950778
   257   2      10.018776053060462      10.135325121742177      14.056092991032273
   258   3       10.05820419656734      10.040454851843304      12.192151511487705
   259   3      8.1413511410357646      10.125194819306728      14.359759883971432
   260   3      10.145553679317175      8.1989809053485985      14.491352082141598
   261   4      8.0213620580777079       8.043496524508452      15.870381134479183
   262   2      9.9818077264651652      10.111366721226783      18.207738816070211
   263   3      10.187289644411665      10.382974760332843      16.322914664646753
   264   3      8.0722759784374158      10.195545912552328      18.351637758319409
   265   3      10.220875073167893      8.1824809162016034      18.125366634173989
   266   4      8.1168676708331233      7.7989537758528398       20.22352357701693
   267   2      10.262638198720904      10.101233400109832      22.304043280668402
   268   3      10.112734169545385      9.9492858663878128      20.291674598210662
   269   3       8.039457649375473      10.223021809811998      22.353637457059282
   270   3      10.057854420294758      8.1903191219537437      22.502628621395772
   271   4   -0.026738245909900451      11.982437912214092   -0.089046732741760573
   272   2      2.0489269847709446      14.123685971045411      1.9579350651437946
   273   3      1.9384591605797026       14.15286906471399    0.075948881809496924
   274   3    0.051191067826313177      14.204866852616073      2.2545606349558014
   275   3      2.1514797217791601      12.248273570607049       2.235477055166442
   276   4    -0.04602224483064813       11.83407992063592      4.1203597346310143
   277   2      2.0535931301705923      14.167536083118179      5.9709672118691994
   278   3       2.082007641671741      14.457799252763607      4.0958799406199304
   279   3    0.038012701205828843      14.288780782166999      6.1567499334689488
   280   3      2.0646070597058546      12.248596548295628       6.025374078497939
   281   4    0.085640456752252861      11.810556199690085       8.021525095358081
   282   2      2.0674507883714712       14.12306278417195      10.025820706125792
   283   3      1.9714527103522774      14.112069703934793       8.154651878991432
   284   3   0.0010968823178625297      14.145053555956645      10.302169645733503
   285   3      2.0369286779338567      12.241264751747508      10.352718606182707
   286   4     0.16905394839141605      16.291940646109641     -0.2420467396167596
   287   2      2.1098646242513164       18.24887180054899      1.9789090262160671
   288   3      1.9501755154748499      18.378811995714557    0.059349688400389691
   289   3   -0.015649613852015212      18.424221072777367      2.1172482217644002
   290   3      1.8283322229074592      16.239774410409744       1.989810405166577
   291   4     0.13379104453035554      16.306671985279966      3.8411334034971052
   292   1      2.0305775789016556      18.258481047733166      6.0299852607507241
   293   3      1.9181925451532444      18.032684601041858      4.0212155983078093
   294   3   -0.039457794936455556      18.260865930201682      6.3516608672225052
   295   3      1.9986654976010705      16.184510512583593      6.3741585923558519
   296   4     0.14582174775280662      16.285686554878581      7.8105058057230066
   297   2      2.0818759008445267      18.255484232030138      10.086711428056001
   298   3      2.0401638007750984      18.365286301615075      8.1789722577730206
   299   3   -0.022113220521528924      18.394032197069009      10.174372227176574
   300   3      1.8304299233696553      16.218847679072024      10.128501167079818
   301   4      0.2234071146132395      20.093078918186269    -0.21959133917028642
   302   1      1.9868412515109157      22.249866788555284      1.9765474606292264
   303   3      1.8201984509171536      22.147692737300432   -0.052070248466170081
   304   3   -0.037336605746922477      22.203621460963067       2.315750742830005
   305   3      2.0828774440057036      20.216683972131985      2.2537571589768559
   306   4     0.19006806431159551      20.171382066563325      3.8251305494854435
   307   2      2.1116855308418199      22.252276470863226      6.0293452338395195
   308   3      2.0897214108055895      22.454376833553354      4.1234755796796128
   309   3    -0.03111418991656965      22.467496828154502      6.0882248909541277
   310   3      1.8617207400203648       20.33715464232246      6.0396558721784004
   311   4     0.23396174645662315      20.120062084750366      7.8645867959547662
   312   1      1.9755430502039482      22.288938172105791      10.122550100472079
   313   3      1.8474700501491621      22.237619554967075      8.0929752519505058
   314   3   -0.079005133481812262      22.288255059550309      10.410433923798116
   315   3      2.0478747824557515      20.215475688887903      10.370010407334105
   316   4      4.2314471041798605      12.130160362153594     -0.2665739557777469
   317   2      6.0723368657591816      14.166981666571713      1.9119717446546418
   318   3      6.0023228863189075      14.083678564185719     0.03407125664017311
   319   3      4.0027151617354422      14.472087258564107      2.0761047160879578
   320   3      5.7978376666732219      12.243453894615829      2.1765991798150668
   321   4      4.2078702687942595      11.847811677617042      4.0739916046651983
   322   2      6.1062330070347439      14.152110299840922       5.955596630951411
   323   3      5.9556947257811759      14.411377116236247      4.0824046750389975
   324   3      4.0198392652286872       14.37568979066763      6.2237299511455983
   325   3      5.9347431488972191      12.255421151440078      6.0033112514178137
   326   4      4.1143477821098564      11.767616853214449      8.0376636340135565
   327   2      6.0516170099253976      14.217888517590497      10.023399126141507
   328   3      6.0152286594161346      14.126974984839645      8.1488220750979607
   329   3      4.0047238145807666      14.294220292178068      10.212961286188657
   330   3      5.9904726445853251      12.283073620989079      10.351308223563269
   331   4      4.0325266876580645      16.182466448315004     -0.3457567714108572
   332   1      6.0116386242848012      18.193991515982862      1.9601335839256069
   333   3      6.2255365435466015      18.372903023677733   -0.080650219325543296
   334   3      4.0138101939336073      18.086552052439991      2.1226671782922666
   335   3      6.2620491442346111      16.168604468052585      1.9581358055117077
   336   4      3.9889130734754468      16.369285742278841      3.8984923513386871
   337   2      5.9443570124734144      18.322649347490259      6.0417680777891523
   338   3       6.154519083441917      18.057753740888508      4.1411056900947454
   339   3      4.0678898644092349      18.055172690848881      6.0753371314975269
   340   3      6.0979721331288124      16.243736290852954      6.3701101850403976
   341   4       3.988445249207063       16.28512868814715      7.7891118446479464
   342   2      6.2085756081376111      18.273750452752516      10.076658754544034
   343   3       5.964300377436123      18.334778801532401      8.1662418005180566
   344   3      4.0100646747862916       18.12672344709792      10.325068713717876
   345   3      6.0812866438522679      16.220107143704936      10.098255931285253
   346   4      4.1722467571207265      20.642703337508966     0.20383099667594912
   347   1      6.0969407968928309      22.274451125643928      1.9581927531219101
   348   3      6.1136609224132892      21.991821205107296   -0.085986481347084767
   349   3      4.0387152107895057      22.230835980416902      2.0368646965128407
   350   3      5.9890338498650975      20.227988878544188      2.1587087474224043
   351   4      4.1494671293570118      20.482006504544227      3.6751480353156762
   352   2      6.2204160807932531      22.374312053751048      6.0531781864462992
   353   3       5.966140447084241      22.345042451877838      4.1318689399705697
   354   3      4.0331630630057367       22.27455348820591      6.2549879182981751
   355   3      5.9873080368212577      20.236154939589657      6.0127557556414173
   356   4      4.1278921911840234      20.709395855579835      8.2891541226889718
   357   1      6.1365919854221689      22.330318042716961      10.116850190573771
   358   3      6.0479350444174518      22.046300479273508      8.0853114912662303
   359   3      4.0278069602378945      22.242580285079125      10.196429157744326