(written by ASE)

1080 atoms
4 atom types

0.0      24.299999999999997  xlo xhi
0.0      24.299999999999997  ylo yhi
0.0      24.299999999999997  zlo zhi

Atoms # atomic

     1   4     0.18046586268776699    -0.24618601106796853      -0.205785640481223
     2   2      1.9885645623408619      1.8995172251356729      1.9307671334138763
     3   3      2.0943492084126958      2.1210965373512023    0.048154311762989073
     4   3    0.039593377947100286      2.1852581029514901      2.0141488273894423
     5   3      1.9136848833714935    0.012472358876971753      2.0237496592942112
     6   4   -0.010439409187712365    -0.25121168364846813       3.829590495893711
     7   2      2.1323643279634141      2.0462900175467387       5.942135100819316
     8   3      1.8907794123720976      1.9618883607461859      4.0647868143950863
     9   3    -0.05671560174714349      2.0895013791871526      6.2860061706555275
    10   3      1.9136470549222238    0.048310013737824731      6.2766826443652288
    11   4      0.2116614067215872    -0.26091894272147781      7.9674350808651226
    12   2      1.9875919744293089      2.0058944220340851      10.024384650820254
    13   3      2.0165678628969665      2.1063245821319594      8.1456787568426634
    14   3   -0.061816845710965171      2.2497378918127362      10.168440540107241
    15   3      1.8512509596813924    0.090559444420147989      10.192710265944724
    16   4    -0.38689691289720346      3.8310493609977962     0.17283493747934001
    17   2      2.0673467457573991      5.9031685623640398      2.0173649282767947
    18   3       2.059368985144471      6.1826076053488723    0.079629944753220439
    19   3    0.074201368166084192      6.1209276343566339      2.0652800578891539
    20   3      2.1158602358427383      4.0287117490610767      2.1793149562631555
    21   4    -0.29159006059543757      3.9137756095864984      3.7200903045711247
    22   1      2.0661713016127932      5.9842021495984126      6.0241891481539742
    23   3      2.0090553059687246      6.3333264033006573      4.0036231496271011
    24   3   -0.043306954964859812      6.0619894511668306      6.2816412153858217
    25   3      1.9427621280715273      3.9611414366652178       6.141840531308592
    26   4     0.18465790236077292      4.1081405123146393      7.7707848212201984
    27   2      2.1314204290470773      6.1330994288987926      10.078723705164665
    28   3      2.0363667548012936      6.0014285875110653      8.1719152882817241
    29   3    -0.09164664547440253      6.0215372577979034       10.17526595416388
    30   3      1.9985783983547747      4.0750321156829656      10.352492959296052
    31   4    0.037744775314573688      7.7030585738861062    -0.06853484255722278
    32   2      2.0436764354435608      10.075398134473714      1.9671444474853161
    33   3      2.0203639413546837      10.337927143468645    0.075132029466050437
    34   3    0.048163966845877343      10.409063031926514      2.0511375656167381
    35   3      1.8919363442814228      8.1989290971002351      2.0243331514698397
    36   4    0.063426085283423153      7.7618375534975863      3.9019877244416952
    37   2       2.053105952535669       9.989168589703187      6.0871370546477221
    38   3      1.9520271315099595       10.19388894459922      4.0883382324346469
    39   3    0.062834936394374236      10.324240355225069       6.152838366078317
    40   3      1.9016661332727731      8.1174207171241051      6.2058261744700909
    41   4   0.0093817525954601015      7.8995520231853522      7.8105885850278627
    42   1      2.0517257381420722      10.071211632695679      10.098844372323077
    43   3      2.0322150610823111      10.370405329886191      8.0574159717175817
    44   3   -0.069559313084862434      10.363564131878791      10.136699416028579
    45   3      1.8336384342062031      8.0509062611019857      10.160093489212993
    46   4      4.1041281471209192     0.11746106663827756    -0.36543162101199111
    47   1      5.9832138310829865      1.9934641508193975      1.9850736381330583
    48   3      6.0751362994010316      2.1290879640367564   -0.043402325264450259
    49   3       3.968987466767524       1.999278247612744      2.1808515121533265
    50   3       6.225767606446845   -0.026214921058868895      2.0050087222495812
    51   4      4.1693328692321634     -0.2066376487400379      3.5484097414796887
    52   1      6.1051212570844422      2.0099867098579622      6.0782856146763304
    53   3      6.2059968780210273      2.0246171357128873      4.0557545021059553
    54   3      4.0019001356596871      1.9529597370714593      6.0628359219285253
    55   3       6.089057266946944   -0.040719066015979459      6.2918056334786892
    56   4      4.3824865949526206     0.16244599658730424      8.0200044014290697
    57   2      6.2581666778251037      2.0420085794472147      10.179053354852849
    58   3      5.8442332375703581      2.0830709996848129      8.1786500319533939
    59   3      3.9037738140635443      2.0141071736985738      10.314413659975788
    60   3      5.9308403492529971    0.074028462308975515      10.064402614956103
    61   4      4.2569758991695599      3.7356633388017544    -0.17899879332539353
    62   1      6.0663518613309808       6.073880639751196      1.9868824639782341
    63   3      5.9768519716337458      6.0309419036377845   -0.058099872082295376
    64   3      4.0025720300753385      6.2881266611838127      2.1046307470335268
    65   3      6.0758804847688488      4.0489067254762219      2.1215455543416302
    66   4      4.3931596890037152      3.7379527998920161        3.82973279937295
    67   2         6.1511799944479      5.9943025138358017      5.9709213140887956
    68   3       6.118502043454642      6.1998341859058073       4.065480487696683
    69   3      4.0940569540732348      6.2875591415427534       6.007156389686009
    70   3      5.9597368375514792      4.0644035419509956      6.0673741636435095
    71   4      4.4274081202290247      4.0349014977974527      8.0484610062135715
    72   1      6.1332950606233059      6.0131914195506875       10.09582615712972
    73   3      5.8535411183393711      5.9954160121004385       8.077238384010931
    74   3      4.0158225373763425      6.1604726842174538      10.341991496395586
    75   3      5.8318665191751053      3.9943106853541264      10.174435583464984
    76   4      4.0617355046350943      7.7021507547423047    -0.12586272478377641
    77   2      6.0837012693292225      10.014426185459964      1.9986763041694915
    78   3      5.9292929952319993      10.356971455980215    0.032341004537213711
    79   3      4.0097356232151622       10.12587276226137      2.1591957707009644
    80   3      6.2010289419125959      8.1574148850066859      1.9537505072442296
    81   4      4.0303968796874328      7.7024896620949512      4.0397649414611809
    82   1      6.0861851028406813      10.061612284485436      6.0513916262710721
    83   3      6.0849581498497018      10.255708636109805      3.9865212058912842
    84   3      4.0101533458238841       10.17244477058431      6.0938381397606411
    85   3      6.1843463926224915      8.0529453222576635      6.3398133478980405
    86   4      4.3002888146672458      7.7926736164373525      7.8609945820168701
    87   2      6.0782987299241205      9.9421773137316478      10.133458443082839
    88   3      6.0546444013331877      10.365380459558434      8.1572202919882049
    89   3      4.1022641336115315      10.280957509211534      10.132239873059021
    90   3      6.1163064588866138      8.0827283359732416      10.020359629007579
    91   4       7.788987179274061     0.30610592889216076     0.21161981475056821
    92   1      10.184032093183678       1.964570936744767      2.0047327157659933
    93   3      10.217931098203103      2.1252064112661526   -0.010257240715594609
    94   3      8.1110581338787657       2.090835228375131      1.9505696766797105
    95   3      10.003314346822384   -0.067633650234193377      1.8481098116952019
    96   4      7.7818458647804016     0.28002389834731312        3.75230103032604
    97   2      10.146798087421748      1.9952410141110877      5.8777233182333815
    98   3      10.071871693052133      1.8863068974434416      4.0189000330234226
    99   3      8.1617902799669828      2.0600784098364664       6.246860579872564
   100   3      10.129742988725944    0.035344705775364312      6.3497631872194154
   101   4      8.4174708143783974     0.25309850483825669      7.9813241393410665
   102   1      10.219718572811654      2.0582263359480666      10.099727669034106
   103   3      10.147997161791398      2.1888233884950434      8.0977423278544265
   104   3      8.1209567314011561      2.0651602872769459      10.082093910207892
   105   3      9.9657548195285131   -0.018127117537681262      10.000614181417111
   106   4      7.7837522093434943      3.7906772829519531        0.28175093848242
   107   2      10.132267338078062      5.8944543281829755       1.999855045362029
   108   3      10.177346359470247      6.1305368786507586    0.024148099421515714
   109   3      8.1485807833961239      6.0024556366234574      2.0074911547528704
   110   3      10.329189949710541       4.026970683424353       2.108387096103761
   111   4      7.8504503132504375      3.7554823712116199      3.7199416742777425
   112   1      10.141884994287441      6.0121779523613643      5.9827857607696568
   113   3      10.122993574191041      6.3309711220006157      3.9673763351877263
   114   3      8.0842640553075977      6.0035776020387237       6.269859812431843
   115   3       10.22542097684782       3.980765323704381      6.1024067898645722
   116   4      8.3799674317153698      3.9160630133239902      7.8137564514929387
   117   2      10.181207313601703      6.1041672456104052      9.9724560301252918
   118   3      10.268376662910173      5.9599686852427922      8.0922765362616502
   119   3       8.183777947619614      6.0482341255929537      10.141995201229307
   120   3      10.245065983460922       4.099303382935906      10.395894140022644
   121   4      8.3258507703756965       7.802945262856599   0.0052837549959493073
   122   1      10.056533973487587      10.116199552535592      1.9840417589082338
   123   3      10.043596797741989      10.481084488271463   -0.063355858845759977
   124   3      7.9867495500058432      10.442256995862499      1.9741951920959728
   125   3      9.8892040925924594      8.1143809384859491      1.8488543646827449
   126   4      8.3188070016643696      7.8797595783951113      3.7430875177423277
   127   2      10.116490176067465      9.9958009423331422      6.0470706092145532
   128   3      9.9771613214639743      10.157347027461745      4.0704494945729746
   129   3      8.1103982333016873      10.349175991572594      6.1261395662960973
   130   3      9.9191889561245166      8.1036731831700237      6.2098224789050267
   131   4      8.0459592593977209       7.878264467637897      7.8192803273323364
   132   1      10.130594428924148      10.095762855272932      10.057925819365005
   133   3      10.091431769007979      10.421536647156683      8.0449729908590975
   134   3      8.0356643738580402      10.369553866632454      10.103345411443017
   135   3       10.14913814934374      8.0601730145005881      10.169889740071365
   136   4     0.16217450575959305    -0.25907208025043088      12.040389432371702
   137   2      2.1159410674260766      2.0224437319918467      14.082339229515314
   138   3      1.7993038019087793      2.0257849436908586      12.200420288714039
   139   3    -0.10540061615031501      2.0534372948184134      14.438046681087553
   140   3      1.9366413866396299    0.070621542335866649      14.351569683468544
   141   4     0.14608817810261762    -0.24839087605070315      16.019637121342271
   142   2       2.016636135627174      1.9854715354540167      18.113729072835895
   143   3      1.9950473002312943      2.1967537901138243      16.226860427157835
   144   3   -0.045452572831837415      2.2522033702441955      18.293796959127526
   145   3      1.8427318503361378    0.088727078794810552      18.205742746073266
   146   4     0.15880750464546542    -0.26136938773376067      20.069919240736056
   147   2      1.9849064925777038      2.1308226559145349      22.166548617534726
   148   3      1.8750904809780682      1.9511418038131163      20.278706925540721
   149   3  -0.0063023369287409257      1.9749197288608504      22.487233734415113
   150   3      2.0389645746491336     0.01436781380414869      22.532825337652039
   151   4     0.28637790937029939      4.1515539379211885      12.061529646442311
   152   1      2.0492733245041985      6.0388701751194054      14.162000879523449
   153   3       1.795259445787571       6.167368201713697      12.150366144603765
   154   3    -0.13333626542675089      6.1772583268119821      14.370417709028967
   155   3      1.7790805519597586      4.0022599494107061      14.161194714942443
   156   4     0.17324035133715618      4.0828104627558259      15.917241513506779
   157   2      2.1282717119702452      6.1090574010553906      18.205282540484856
   158   3      1.9053748341868886      6.0131032222578655      16.264236306476807
   159   3    -0.07887004350666732      6.0316275950004403       18.42043369658316
   160   3      1.9660905287988926       4.080847988612696      18.449099071657376
   161   4    0.069225926955110192      4.0192147226338468      20.017765373107292
   162   1      2.0056496139768369      6.0134089590828559      22.277514165132736
   163   3       1.985226883438626      6.2855966547993027       20.24367289851704
   164   3   -0.067938370995268102      6.2537425690983719      22.291412741590754
   165   3      2.0190209888855324      3.9989663252183543      22.231372958927121
   166   4     0.29788889185696132       7.996080142381893      12.029705430172253
   167   2      2.1215351320046021      10.050048560188877       14.20380567486079
   168   3      1.8424149784949211      10.123691337985157      12.239050494359129
   169   3   -0.085771437887035409      10.187448049704249      14.346705769376896
   170   3      1.8876035327069258      8.1447673239012648      14.287981875164036
   171   4     0.25797310013845226      7.9496126191471372      16.098069110253299
   172   1      2.0348380637061476      10.093896311363613      18.211832062645332
   173   3      1.9170645262324135      10.297505603015281      16.161829938443422
   174   3   -0.089224559364691092      10.371663129097438      18.260516683096284
   175   3      1.7777205531978808      8.0483476455552836      18.159663434996773
   176   4     0.19959680166472199      7.8492057914438549      20.177996925230783
   177   2      2.0526588239866426      10.048669240654901      22.202231176172866
   178   3      1.8458112419174011      10.136275835989137      20.326946156523402
   179   3   0.0044582426222827794      10.269741435944372      22.494197545950815
   180   3       1.961874770997357      8.1840399725790842      22.433240374526171
   181   4      4.1798995259531626    -0.15756435864407178      11.747953910430249
   182   1      6.1114075493824691      2.0111606355938054      14.130051416586166
   183   3      6.0092735030468853      2.0109169780669882      12.102528531817226
   184   3      3.9731145895330644      2.0881246706688672      14.139843190796322
   185   3      6.0122101807948161   -0.010981959177253095      14.368905374610796
   186   4       4.396988678988011    0.020462324132417428      16.203084080664436
   187   2      6.2637882056177085      2.0297622445931403       18.22277933281072
   188   3      5.8124561987809331      2.0814254765382585      16.261188176877045
   189   3       3.914767182790531      2.0290129364473595       18.35403585988599
   190   3      5.9133218488483728     0.06699108159702559      18.123487438569065
   191   4      4.2296190262029931    -0.21569747126423003      19.888917707605213
   192   1      6.0935807053275797      1.9747713421349229      22.181559317356882
   193   3      6.0119959401989469      2.0126539656644002      20.167359582373788
   194   3      3.9680491070192221      1.9944975341476208      22.398523540988894
   195   3      5.9434151112408173   -0.064681547401975251      22.420350251913639
   196   4      4.3079681463874966      3.8948552592804955      11.999397699056006
   197   2       6.169812104632773      5.9773138228413139       14.15014012292132
   198   3      6.1338642633585341      6.2426416365741142       12.19743081945925
   199   3      4.0878440469794217      6.2702742110353027      14.089014003982145
   200   3      6.0303664872984806      4.0641461455689152      14.170041378426058
   201   4      4.4193991259897558      4.0032003792226325      16.173560194793279
   202   1      6.1067689589144534      6.0595542278131242      18.201551706902777
   203   3      5.8616867469310012      6.0060704520816799       16.16926336264374
   204   3      4.0142908252214866      6.1566298711895229       18.32654838647505
   205   3      5.8403284641900521      3.9963345928984602      18.258587308920951
   206   4      4.3092291643672462      3.8943019472812495      20.077905036910597
   207   2      6.1188313892924011      5.9415642688498984       22.28596158072833
   208   3      6.0309529686664591      6.2846673021297299      20.296828931234653
   209   3      4.0791529512210305      6.2782040312811471      22.254392483276373
   210   3      5.9552742479104239      4.0549768530041073      22.175926789639043
   211   4      4.2373709544397382      7.7639766620906272      12.224242763774557
   212   1      6.1200653672307972      10.135004044858912      14.148679819020773
   213   3      6.0362411786017649      10.151826834391152      12.093622290460168
   214   3       4.006977060599402      10.176732862578428      14.188900096395775
   215   3      6.0857095851449685      8.0959035560651333      14.427839891187201
   216   4      4.3090638102336252      7.8346204397385177       15.98889611942122
   217   2      5.9193804529613203      10.027332403483673      18.141818484468264
   218   3      6.0171876230066905      10.377280560626442      16.267031500862441
   219   3      4.0539524378033231      10.186706776077449      18.299472737416668
   220   3       6.076056913858543      8.1531872543528934      18.095587088989458
   221   4      4.0928765561773117       7.735081778290823      20.326298294032419
   222   2      6.1715209919150391      10.102862704930045      22.218485812425374
   223   3      6.0185314275849429      10.087027576656048      20.301899456331881
   224   3      3.9685113233184288       10.18415294074051      22.348087672227013
   225   3      6.0280024696539138      8.1838092376612313      22.413868044439653
   226   4      8.4315152455024069   0.0097800896752324867      11.981675155764583
   227   2       10.23919600032259      2.0444032475794041      14.074787746130355
   228   3      10.054801134886663       1.800543115740352      12.173015121754773
   229   3       8.175450631765365      1.9589478473383652      14.439328484333748
   230   3      10.162291059268632    0.039593407957229723      14.460196762739031
   231   4      8.3520750164289144     0.14588642411239211      15.976849564626148
   232   1      10.208781739108117      2.0118686625690807      18.189671630506666
   233   3      10.223026993069341      2.3138531517384231      16.179506275605789
   234   3      8.1219818476113499      2.0860804784666342      18.089263174243996
   235   3      10.129383433030794   -0.016053277120626139      17.957859220235143
   236   4      8.4656651828926446     0.10537549373034284      20.482697582933298
   237   2      10.168275786210989      2.0672160924382288      22.425954056566969
   238   3      10.037887299854722        1.92328051605598      20.213283895478817
   239   3      8.1590084890675811      1.9776605385834705      22.200757138424422
   240   3      10.204052116679607    0.051543109097434842      22.215632481814787
   241   4      8.5185220312408898       4.230058605182494       12.02535777163161
   242   1      10.182483054489799      6.0738663200151795      14.179829329307413
   243   3      9.9447534193344662      6.1783580563490164      12.173773041009081
   244   3      8.0922405991315731      6.1590460402624183      14.345516094951956
   245   3      10.001804616267302      4.0144222909349319      14.039841123566921
   246   4      8.3752885515123143      3.8360668213022509      15.949392265136126
   247   2      10.016943266846249      5.9958471408109064      18.201557601592935
   248   3      10.280012933390848      6.0351993563408088      16.288960507441963
   249   3       8.138612400297264      6.1939618669393006      18.263395640012714
   250   3      10.152047382707098      4.1279000341103522      18.466615049855061
   251   4      8.4125134862333635      3.7475377098631424      20.351410770310451
   252   1      10.122160761291086      6.0067346417247922       22.27684758901129
   253   3      10.101708620137362      6.4201864418665524      20.216743428092638
   254   3      8.0487124952975293      6.1838737802104173      22.229919280968655
   255   3      10.130017252085119       4.001063197995407      21.988124572589928
   256   4      8.2963556130476288      7.8140479721131095      11.928572538363994
   257   2        10.0221972286368      10.138069294100511      14.059620443930731
   258   3      10.054444429542535      10.040276274267226      12.193943200309146
   259   3      8.1442162945768999      10.131774228461426      14.368250372098492
   260   3      10.144932521979859      8.2003587201434716      14.490940904350071
   261   4      8.0283433881343829      8.0522419859366767      15.882610795924311
   262   2      9.9774029768309926      10.109590640001835      18.208300751842117
   263   3      10.193068910628437        10.3869316441814      16.320976607001114
   264   3      8.0772690745048195      10.227931815997566      18.336873875176281
   265   3      10.220767590402248      8.1841611612081859      18.119303268849741
   266   4      8.0844378502558598      7.7498476052385499      20.271445713902725
   267   2      10.258762973758081      10.099780210991465      22.293496393224345
   268   3      10.113687048838804      9.9678526206924261       20.28756415580839
   269   3      8.0437427663662877      10.272266585377155      22.356922871099851
   270   3      10.042726348878938      8.1924383689558571      22.483823104748364
   271   4   -0.038771663465527531       11.97493898052265    -0.10004838408151896
   272   2      2.0394001025441715      14.111068318323269       1.954060903098864
   273   3      1.9442908784992041       14.16804438156869    0.074808771795859638
   274   3    0.055332635872639542      14.195366376262108       2.249811695449988
   275   3      2.1643477249756313      12.238099482090368      2.2149574390979043
   276   4   -0.057944354396932185      11.826207136890787      4.1165617430812187
   277   2      2.0582616088124528      14.163232700343388      5.9684323278800706
   278   3      2.0783000249084789      14.434126989407204      4.0940698173139172
   279   3    0.035043158807019921       14.26159164577386      6.1643979363271857
   280   3      2.0767064304175213      12.245237987245673      6.0356581831488052
   281   4    0.091087798180837024      11.814900093676485      8.0178394185864672
   282   2      2.0710488559439231      14.120334382354176      10.030214451674166
   283   3      1.9744614236144575      14.116506838854692      8.1583706100721738
   284   3  -0.0027193234254552718      14.137469156500256      10.297718247290693
   285   3      2.0316357566929297      12.237675936610628      10.356674518327122
   286   4     0.16943614357903439      16.294961367069426    -0.24207136648378424
   287   2      2.1218128490106478      18.232042619965885      1.9988412577170613
   288   3      1.9568160539642208      18.368249639993195    0.070699533605108444
   289   3   -0.036063896638869608       18.47053955404785      2.0416432187596394
   290   3      1.8218525437319775      16.245030843355295      2.0281556684317068
   291   4     0.13723970745583988      16.270746506556236       3.865845873485227
   292   1      2.0312834778971092      18.252031387964152      6.0263134066990274
   293   3       1.782956406323307      18.139182188777188      4.0176384261270188
   294   3   -0.046674075335897333      18.279763293162475      6.3667536851695052
   295   3      1.9766184364687556       16.18444571348288      6.3580476259859076
   296   4     0.14456751991398392      16.280397532452973      7.8119861793686338
   297   2      2.0800711047393259       18.24770349652621      10.090680200929885
   298   3      2.0385701087810975      18.358643608737172      8.1821313282865979
   299   3   -0.027932192717244998      18.404707203024682      10.158957207449976
   300   3      1.8256236019201029      16.216604751902281       10.13734866324376
   301   4     0.22367491860194352       20.05566038437858    -0.16532130334481898
   302   1      1.9790702770537936      22.244420965111033      1.9877770710263718
   303   3       1.832810520686081      22.171883696440851   -0.040775067147669181
   304   3   -0.045456332260048582      22.219010117616289      2.2962116636115768
   305   3       2.100411395768941      20.220581559128306      2.2330455582027029
   306   4      0.2460193263441659      20.100101344087381      3.8752223941254367
   307   2      2.1107786010978011      22.256814398414495      6.0326266678645331
   308   3      2.0843216706610597      22.458042075144544      4.1249541492379995
   309   3   -0.036196035182491197      22.455230075038749      6.0941166658798558
   310   3      1.8640175645819406      20.338157591915522      6.0435320458377699
   311   4     0.23894584931154625      20.116673118068327      7.8795025977540911
   312   1      1.9759481627045781      22.287069780671693      10.122487719961928
   313   3      1.8488144940847646      22.239512363400788      8.0930325873744309
   314   3   -0.080532698859496848      22.292987830299577      10.400777789627142
   315   3      2.0500645290832686      20.213061600305373       10.36923365833789
   316   4      4.2340954425221815      12.125340493311176    -0.28584469040602534
   317   2      6.0972094193340327      14.149291787821451      1.9001105540439958
   318   3      5.9942212709216287      14.103848843173651    0.029052992535638537
   319   3      3.9943822803706563      14.477704911810111      2.0850763932943694
   320   3      5.7813606557242956      12.246746735962484      2.1609527421926873
   321   4      4.2168565200819987      11.838311489890478      4.0675656582854929
   322   2       6.113872812558264      14.141003307751003      5.9739203062698127
   323   3       5.924848233201403      14.388735347268975      4.0913708463616798
   324   3      4.0166869523398283      14.381736529374217      6.2222829325168485
   325   3       5.926720462824723      12.250490035499382      6.0166384591877193
   326   4      4.1135814773114925      11.764250635996255      8.0379754241196775
   327   2      6.0560265701288225      14.218053637354988      10.026784659289461
   328   3      6.0109630235394516      14.129188909015781      8.1490703705133072
   329   3      4.0036420979910678      14.289519583239084      10.217491259595551
   330   3       5.990063380802952      12.282495406182107      10.352881332381495
   331   4      4.0383210801734144      16.177481824089188    -0.35348096311305377
   332   1      6.0150367420615449       18.19749709969599      1.9593553705228981
   333   3      6.2134204910614503      18.369488964453677   -0.078401365952701293
   334   3      4.0154888823360331      18.091246588251394      2.1523998815343868
   335   3      6.1933610758420548      16.167325136281697      2.0229006893269643
   336   4      4.1458468535667201      16.233887745876153      3.8133675997760634
   337   2       5.930816007863303      18.322027936144192      6.0371335831541639
   338   3      6.1675238132512717      18.076772540088566      4.1434341425307561
   339   3      4.0617777613083703      18.071934046196514       6.083796904843835
   340   3      6.0925994328448425      16.244006801249778      6.3604360455733824
   341   4       3.981466882814126      16.287886670104346      7.7755159199898412
   342   2      6.2055957925362701      18.272421561786199      10.077204711876119
   343   3      5.9646735859583782      18.328749536592056      8.1690653217569054
   344   3      4.0064662377549736      18.125668074562924      10.335614055234965
   345   3      6.0755621570312446      16.218271991060778      10.102057023661677
   346   4      4.1525529965807948      20.640498500466343      0.1968190994214942
   347   1      6.0961621944213009      22.272620581080485      1.9643445012810157
   348   3      6.0971796417099506      21.998406059546856   -0.081435020138598074
   349   3      4.0389123204694659      22.242686075189511      2.0375757557022518
   350   3       5.991478579414105      20.228370981476637      2.1581335351011641
   351   4      4.1484036625503293      20.473268613883214      3.6672852822492241
   352   2      6.2234484544872881      22.370577828487175      6.0537710359563626
   353   3      5.9664038704188265      22.350614291619838      4.1319972881016511
   354   3      4.0315602222849503      22.283794354215217      6.2536636153078371
   355   3      5.9850560478896648      20.239803283762114      6.0202374345667797
   356   4      4.1302073300070239      20.704017533118769      8.2847740887185086
   357   1      6.1377463842123028      22.326476812382452      10.117033597882699
   358   3        6.04514565439138       22.04976248445632      8.0864718265867417
   359   3      4.0280131222055671      22.241803002320125      10.197324363028772