(written by ASE)

1080 atoms
4 atom types

0.0      24.299999999999997  xlo xhi
0.0      24.299999999999997  ylo yhi
0.0      24.299999999999997  zlo zhi

Atoms # atomic

     1   4     0.22405248439564696   -0.088677564344774251    -0.28634884644265662
     2   1      1.9909068785025295      1.9614301817258748      2.0051987220421887
     3   3      2.1122701000873843      2.0116932521804078   -0.042541875568481158
     4   3   -0.060539627461668716       2.294352827228276      1.9904286341862498
     5   3      1.8678550670126999    -0.06382291374178202      2.1413570161817312
     6   4     0.15279646767622737    -0.13217078068117402      3.8826696036340453
     7   2      2.1377091580790761      2.0402697081943004      6.0259776949466817
     8   3      1.7778766098690557      1.9995887592388097      4.1318798392245855
     9   3   -0.082576240392402356       2.178978552400177      6.3104656451516865
    10   3      1.8205234184856405    0.055610915097255971      6.2248347585218271
    11   4     0.14004203385892025    -0.16291558173668877      7.9662081396337667
    12   2      2.0453378628199124      2.0316514169776547      10.089241332038258
    13   3      1.9942907081557488      2.0905415145296669      8.1671374165666411
    14   3   -0.087787083807150446      2.2639653691403381      10.119093259453384
    15   3      1.7654443750680164    0.074575325241556745      10.151247974124992
    16   4     0.23668237551251861      3.7797250227122272    -0.12198621169477553
    17   2      2.0827507192946308      5.9271767004180722       2.038334280506704
    18   3      1.9981588732240334       6.176550617036801    0.088893441145860744
    19   3    0.028637116129184393      6.0918258845040425      2.1309551248009577
    20   3      2.1052554534352099      4.0521440013697534      2.1362704687766247
    21   4     0.12133038776463401      3.7729966398077384       3.859860951645032
    22   1      2.0830462624948649      5.9952580940439741      6.0553845174064485
    23   3      2.0135290951294569      6.2932016989560555      4.0222773948392252
    24   3   -0.068253296342599371      6.0885083708392482      6.2331010107447318
    25   3      1.9629523322559288      3.9782496385111883      6.1630204159172104
    26   4     0.23342658186506171       4.092506029016052      7.8446776018616751
    27   2      2.1641572510664218      6.1214480413478789      10.128204476093947
    28   3      1.9401267150729575      6.0472677816801461      8.1743223097487618
    29   3     -0.1152900783512687      6.0114468357400597      10.172930344825962
    30   3      1.9799838852977147      4.0613226492701511       10.27739182458933
    31   4     0.12232656390957901      7.7965280314825511    -0.16521397479445574
    32   2      2.0628942036741531      10.055502967723475      2.0266038430634503
    33   3      2.0370552542277154      10.347508498955671     0.10870879190326299
    34   3    0.020285191497052699       10.42898536440924       2.063232169787276
    35   3      1.8568410875280239      8.1835818440532204      2.0483225462060055
    36   4     0.16744998013887505      7.7925544289976925      4.0667770123149563
    37   2      2.1270494904592572      10.029577782127166      6.1434465915097336
    38   3        1.84884553841281      10.178227827555913      4.1006621128986485
    39   3    -0.03152660149434041      10.357978737970278      6.1762918998885814
    40   3       1.841670904062688      8.1430640223473887      6.1667312150953606
    41   4     0.22168211261465803      7.8191410787141438       7.971891044013721
    42   1      2.0892457396455071      10.060425741679472      10.095890397595364
    43   3      1.9772871053862415       10.28733021562244      8.0531291408664512
    44   3   -0.094505614428611676      10.336603786313285       10.08495024748493
    45   3      1.7907745232239034      8.0409174985420702      10.118811811408461
    46   4      4.2701779389501509     0.38966471765008343     0.18189907580054512
    47   1      6.0639292592533947      1.9907239496778899       1.998889506262794
    48   3      5.9103489774557847      2.1295743353527921    -0.05102391030889622
    49   3      4.0185882412073903      1.8492884343704479      2.1484974092392326
    50   3      6.2213123245734376   -0.035498387011380771      1.9559999843812408
    51   4      4.1337443695884719    0.018682565798578275      3.7348202059438367
    52   1      6.0953269588046002      1.9997207989285282      6.0979845729317868
    53   3      6.2197029748533064       1.982662658222504      4.0556521571994457
    54   3      4.0036034600428465      1.9212717176524585      6.0024994727014569
    55   3      6.2054978225231832   -0.036074086980347225      6.3160792917822066
    56   4      4.4885935957998919   -0.041797485532983548      8.0598576241258417
    57   2      6.2823703865101495      2.0673511586758289      10.148534740456533
    58   3      5.8897673861395097      2.1222972440652694      8.1888226126978676
    59   3       3.926733642799249      1.9330601517725068      10.294408377666763
    60   3       6.009690386779333    0.079023059988865996      10.084617655382672
    61   4      4.4163102153448532      3.9401555713502652     0.17357377680447736
    62   1      6.0922918683725662      6.0847112493038775      1.9863844476762194
    63   3      5.8939501740767914      6.0258237891511515   -0.074942318654380197
    64   3      3.9951204929072128      6.2879848689354825      2.0794664557091727
    65   3      5.9227281783575805      4.0506002722294756      2.0824276283574301
    66   4      4.3478379900735371      3.6415452616902511      3.8120728170534806
    67   2      6.1497809819957974      5.9563702398787362      5.9654375339101966
    68   3      6.0779581524784412      6.2067007655694733      4.0645937238806633
    69   3      4.0949473461355375      6.3123580841658375      6.0406031666231437
    70   3      5.9272669219327581      4.0478776419571378      6.0575269049678706
    71   4      4.4430208113408609      4.0487431703435943       8.088907472053716
    72   1      6.1547080421138238      6.0155642403047445      10.111540151388162
    73   3      5.8910677025641052      5.9794593044551885      8.0774987323483813
    74   3      4.0291556429587603       6.152128032069057      10.253968156238912
    75   3      5.8393268480028171      3.9980128265117862      10.213464153392032
    76   4      4.1270695939133439       7.691255100952084    -0.11737017755801912
    77   2      6.1326407798800027      10.037879251711805       2.006541096400658
    78   3      5.8818812273033219      10.331717011663834    0.022356083588002118
    79   3      3.9941203305047361      10.124079965899242      2.1649939259677136
    80   3      6.1847201165202339      8.1701858442240098      1.9630923819299222
    81   4         4.0952084309118      7.7170953816878658      4.0829452550711576
    82   1      6.0901210405021651      10.062051295636799      6.0635467404019998
    83   3      6.1023520139283374      10.278364864344718      3.9800843415607496
    84   3      4.0059346504813949      10.052704423313445      6.0065100414100252
    85   3      6.1902434340395462      8.0468084099938366      6.3372704014433623
    86   4      4.3570306125663878      7.8095387701100734      7.8954537450428663
    87   2      6.0800101890559208      9.9318120591666812      10.139308984089926
    88   3      6.0896984011878805      10.337670556507584       8.145501200487514
    89   3      4.1160155016145943      10.207052444849939      10.172081967696654
    90   3      6.1593725538734114       8.055729132774033      10.014615986780798
    91   4      7.9531274181999736     0.10944421160795119     0.36143964720952582
    92   1       10.17213846994362      1.9681130507047691      1.9933545007354672
    93   3      10.317669218168492      2.1929504553508927   -0.032312530991776528
    94   3      8.1294350521375538      2.1542244353944326      1.8198095609195926
    95   3       9.998043420021407   -0.069007502813865945      1.7513945999494689
    96   4      7.6721100165376859     0.10631787685612118      3.8994490135226045
    97   2      10.130657253883385       2.002399114432095      5.8797569316994878
    98   3       10.00844117329776      1.9318075740067902      4.0136609581990772
    99   3      8.1575208077176686       2.065013178798325      6.2874140496490236
   100   3      10.080365633795724    0.034776255514879131      6.3352166348003589
   101   4      8.2242428715710396     0.10871700462862272      7.8140662214000329
   102   1      10.205726226775777      2.0452508009376533      10.079804976960752
   103   3      10.223405352716886       2.265920642757334      8.0834853668247071
   104   3      8.1389569654562415      2.1350337808164577      10.102891461426925
   105   3      9.9658727300641594   -0.021517719432086087      10.016633650305513
   106   4      7.8969017038495704       3.673027543981394    0.065586842024687467
   107   2      10.097319397454346      5.9402551876298961      1.9538845271436325
   108   3       10.15813853421241      6.1181091463623396   -0.013660942051714624
   109   3      8.1297669845834655      5.9161825881352348      2.0260481820776031
   110   3      10.377207391984262      4.0538071192073568      2.1242826680273241
   111   4      7.9023252217728555      3.7318853466425774      3.6405556582752276
   112   1      10.131979842831601      6.0135892516727916      5.9736101662997241
   113   3      10.126027086981871      6.3279910526143661      3.9590934600011587
   114   3      8.0767915395301788      5.9962468862225506      6.2361408783120584
   115   3       10.22718498154963      3.9904580665662084      6.0500124884340796
   116   4      8.3914175450668669      3.8723167157175431      7.8467732192522792
   117   2      10.185214664561604      6.0928074417198754      9.9714378087789015
   118   3      10.256722752519213      5.9464919356880479       8.090527746421154
   119   3      8.1980638346046124      5.9975669152941515      10.169446877684825
   120   3      10.263956351026357       4.101568906013652      10.422896869592389
   121   4      8.3181566932222406      7.8129412039774202   -0.073813041467928761
   122   1      10.056412758560271      10.086106561439797      1.9490417003413918
   123   3      10.069047183152922      10.506480415851941    -0.10735048306870074
   124   3      8.0072943318079997      10.440431542775544      1.9560706314382268
   125   3      9.8111182173580769      8.0844739935172889      1.8901211626593701
   126   4       8.325024988830144      7.8803548226546214      3.7683536626108616
   127   2      10.120996086278447       9.989136788568862      6.0849918192934274
   128   3      9.9896566261638373      10.134106615503574      4.0754671996529677
   129   3      8.1262186257661444      10.373949315989845      6.1284080362253048
   130   3       9.922603472181871      8.0981803958300134      6.2075363482278574
   131   4      8.0268792225602645       7.845492631004376      7.8238914378842184
   132   1      10.150388761515613      10.106890220889401       10.08421176928003
   133   3      10.121640429720754      10.414784732925249      8.0516052136821123
   134   3      8.0760165941716338      10.300938975055679      10.104830746505277
   135   3      10.123689719455014      8.0597701452979624      10.178207048039878
   136   4     0.24609940976641631    -0.14393425731210205      12.130228572976829
   137   2      2.1355691147065192      2.0304188182039331      14.185169126160007
   138   3      1.7489652258268056      1.9979921879109739       12.17307880518287
   139   3    -0.11800268954977065      2.0549680452993617      14.425319010301836
   140   3      1.8388524589329009    0.068449966693717501       14.22580874372998
   141   4     0.20092629697042774    -0.15908236711887941      15.929169867094551
   142   1      2.0349444884931809      2.0134071536324178      18.178892685335562
   143   3      2.0256059096076644      2.1514970495764874      16.142493503850865
   144   3   -0.084022659424474538      2.2719949780315876      18.162135771691165
   145   3      1.9239881165963875   -0.035752751785477564      18.301964194279346
   146   4     0.35648355801266235   -0.065259477595506571       20.24470456129928
   147   2      2.1616748346866497      2.0517617602929952      22.259786210603274
   148   3      1.7125547281050113      1.9830823446005241      20.306672200325792
   149   3   -0.070893193933258908      2.0269646605257212      22.591439572720621
   150   3       1.826643594172521    0.039919849493291776      22.256799723049774
   151   4     0.28867444071417742      4.0857547682649509      12.099553413826207
   152   1      2.0091366440426617      6.0399199578840657      14.135647108977047
   153   3      1.8014745324851411      6.1396063631054316      12.112071382189061
   154   3    -0.12146234320278675      6.2350436093815498       14.28286698271193
   155   3      1.8085546938000083      3.9972347303369098      14.093803404477859
   156   4     0.28144073495278776       3.892077918954409      16.073182796220408
   157   2       2.076349188305477      6.1219740116986436      18.143293747767565
   158   3      1.9230142394648886      6.0176784800674339      16.226763270370242
   159   3   -0.056646118491285154      6.0284613055287002      18.399987699649504
   160   3      2.0417067501680095      4.1134623836331441      18.430386264810867
   161   4      0.2601959929404406      3.8790785787327575      20.054250675192264
   162   1      2.0300813911889368      5.9989464807183674      22.279895115226815
   163   3      1.9964917024654352      6.2718919056196851      20.254889402114145
   164   3   -0.049181421888842988       6.249560724937429      22.354290622108064
   165   3      1.8771803622837266      3.9805402132098915      22.271981901885987
   166   4     0.28768881506029287      8.0113958467601236      12.032136075080146
   167   2      2.1338325094416155      10.119556499628381      14.125268656495582
   168   3      1.8084918510752077      10.084090119141896      12.182168585770938
   169   3   -0.074434457730804454      10.097206962932047      14.407083639340033
   170   3      1.9250263970202275      8.1627647957024507      14.280597881719668
   171   4     0.20282993104498395      7.9823682429843679      15.958115249328982
   172   1       2.007359729921272      10.080826071843749      18.176440679517437
   173   3      2.0535731941134632       10.35607007831671      16.151532950106883
   174   3   -0.056579890373986447       10.39585822064649      18.242461462076992
   175   3      1.8069308216947153      8.0652872657487897      18.188472903918885
   176   4     0.18311809260501105      7.8032504993944647      20.154915709929721
   177   2      2.0320943591382035      10.083281431630306      22.214677227650224
   178   3      1.9146895033793239      10.202547613393248      20.333425676888368
   179   3     0.02787318035916465       10.26768790614515      22.515518942088136
   180   3      1.9738606909459147       8.214413105097341      22.441452733160798
   181   4      4.3958117700229806    0.068559341054524311      11.965598539106207
   182   1      6.1646723318168295      2.0160763849976617      14.140818009853817
   183   3       5.998145780077019      1.9555330893450755      12.114183620945886
   184   3      4.0159253863798972      1.9633687819472825      14.094059990624224
   185   3      6.0885575274714538   -0.051307275019410944      14.402850705564404
   186   4      4.3205439307590998     0.08927410959020704      15.954341855631666
   187   2      6.1542718681762967      2.1123630098232069      18.212761777632068
   188   3      5.7914308439328943      2.0769411006186074      16.247531577176161
   189   3      4.0544150328609838      1.9863454079653395      18.551698447680582
   190   3      5.9640755150277993    -0.05284613048395536      18.114815454504292
   191   4      4.2675887295808108     0.25539942322288045      20.161270098425302
   192   1      6.1002594009843794      2.0048004830030255      22.200406574236005
   193   3      6.2269245966664668      1.7920560057848756      20.176251786223386
   194   3      4.0288457436822709      1.9476779777456337      22.043252081329875
   195   3      5.9911903426653339   -0.035545834344204649      22.357017607879961
   196   4      4.4550651307452052      4.0674815980376815      12.184891462651311
   197   2      6.2680606894139146      6.0562904244232341      14.211826036226903
   198   3      6.0594625436479523      6.1010756446554897       12.21715772995425
   199   3      4.0326047261143811      6.1911132898978662      14.112197051306298
   200   3      5.9478656714227638      4.0790347612549587      14.165104148434997
   201   4      4.3625165072354957      4.0424134823070297      16.046112778134241
   202   1      6.0909684145468272        6.06413998877842      18.237457216469117
   203   3       5.847389812006683      6.0054614756341138      16.172315800504197
   204   3      3.9925810281496208      6.1599808417159592      18.318742995891682
   205   3      5.8722199376420754      4.0171121902493852      18.309462794109212
   206   4       4.017223772481862       3.966954419200805      19.911735612432494
   207   2      6.1052933723841623      5.9001463259784757      22.190182676557349
   208   3      5.9960561844141367      6.2875764702765036      20.287687594668938
   209   3      4.0678910897897431      6.2936414650333221      22.246991695257329
   210   3      6.0235089503015269      4.0385678347550833      22.171648019960724
   211   4      4.3253731269805336      7.8062093347275932      12.349340812955445
   212   1      6.1219280558003613      10.106821057071558      14.150393381717679
   213   3      6.0712127481032381       10.12253081898626      12.108237543222716
   214   3      4.0297710249530043      10.204879749443657      14.145537378354236
   215   3      5.9514879126284965      8.0516760438020896      14.270300282621751
   216   4       4.203814300456215      7.7880364981101318      15.946722631639494
   217   2      6.0196713879060466      9.9949501781671515      18.185660497714128
   218   3      5.9492650832816008      10.356444389845208      16.263920559544935
   219   3      4.0569612530770742      10.298278220702686      18.307042838958672
   220   3       6.094590106560088      8.1443744190236718      18.112046302291631
   221   4       4.014124974584262      7.6994686901683727      20.292011677236854
   222   2      6.1058030656758833      10.088395718605874        22.2518494425291
   223   3       6.012233207874246      10.191200548923492      20.299644107361225
   224   3      3.9804777134129821      10.272442925771102      22.332265327020739
   225   3      6.0261203179300056      8.2099636051839386      22.401210191280764
   226   4      8.3912677217567389   -0.033334019376899233      11.945683398392783
   227   2      10.178428759543282      2.0357272512986793      14.069158899448528
   228   3       10.06262117169179      1.7562190176170223      12.175804594338997
   229   3      8.1774101661438454      1.9735483958182862      14.461186606739389
   230   3      10.123460367470546    0.019347669848650294      14.481157399493043
   231   4      8.1860566996907682   -0.025161893799361158      15.855146669895095
   232   1      10.154231323449729      1.9943648635694744      18.194088779240332
   233   3      10.263361063318891      2.3591148344953448      16.199908647213515
   234   3      8.0618500831767559      2.1464704672007087      18.013496348734034
   235   3      10.128380545150328   -0.052327904430330086      18.044519697043231
   236   4      8.3198977364870235     0.00671043490015531      20.481386511579224
   237   2      10.154478445631904      2.0175144546672552      22.404930450420508
   238   3      9.9080266952134917      1.7991823913876037      20.230552362900479
   239   3      8.1563001558508716      2.1175010095717033      22.370382897680724
   240   3      10.124325212557835    0.033025868270412845      22.264798575150216
   241   4      8.5075726896816359      4.2979853480359722      12.030241823313887
   242   1      10.203329141457855      6.0574904476545903      14.201661933706093
   243   3      9.9817110143676189      6.2187235816455946      12.188087602693695
   244   3      8.1401736291362781      6.1041526100326324      14.345725705203398
   245   3      10.103510377742124      3.9947942875220512      14.010037101592433
   246   4      8.3559113587776377      3.7671323263497412      16.091089645773696
   247   2      10.009617655467377      5.9849577434223864      18.222147497017499
   248   3      10.322781962581194      5.8733842359003559       16.28122668496037
   249   3      8.1251366290968097      6.1089227466706779      18.138539628305359
   250   3      10.172333505585996      4.0954046828110124      18.552997724035006
   251   4      8.3549470876087586      3.7004093169835119       20.31725473512876
   252   1      10.118689287264042      5.9826459365088489      22.245483741752672
   253   3      10.124241616100255      6.4537371044530092       20.19479002434365
   254   3      8.0333865701694958      6.1919886322612818      22.266220806001474
   255   3      10.171943152514265      3.9821880524257742      21.896947975668002
   256   4      8.3980756561020868      7.9346581755746008       11.90923642780383
   257   2      10.010693985948503      10.065751676970923      14.174095156114683
   258   3      10.063760646464896      9.9521980558362539      12.269612874699082
   259   3       8.129138841231919      10.184813335311977      14.402743891750102
   260   3      10.155945997315206      8.1739966106762463      14.559554232133243
   261   4      8.2298047190727281      7.9770010727344349      16.309093060899421
   262   1      10.086703258867933      10.082479341114947      18.235142613913084
   263   3      10.149444805364503      10.528964144908496      16.216204923532807
   264   3      7.9765037432732626      10.354688747173988      18.159048843332297
   265   3      10.057450817955136      8.0795028349844902       17.86051888711965
   266   4      8.3080929789445452      7.9418630873446086      20.369737143001842
   267   2      10.251138489213405      10.144876852510771      22.234870445434296
   268   3      9.8333590485060114      9.9584531145558746      20.277287339381072
   269   3      7.9859256625152675      10.294480165375044      22.377376706161016
   270   3      9.9353281098506532      8.2065605560015431      22.425870240206535
   271   4    0.033006607101061104      11.985905656089589   -0.079283988423811652
   272   2      2.0895807846056411      14.130689089801185      2.0467004334666754
   273   3      1.8941438732347933      14.208800668626976     0.16166559231969055
   274   3   -0.016100803141594129      14.226157768931913      2.2809321964464377
   275   3      2.0721477853040069      12.233825482571769      2.2587889334065556
   276   4    0.086672447677754949       11.89751811440383      4.0409152192232289
   277   2      2.1029709578781883       14.11247806652198      6.0750916003945017
   278   3      1.9407326628736725      14.392679028961597      4.1501692359731281
   279   3   -0.042477110259090504      14.233296887205578       6.094553474188027
   280   3      2.0370213961130976      12.210095736871819      6.0274028127898642
   281   4     0.24399191384979366      11.903680659101246      8.2283417663607121
   282   2      2.1667331401968819      14.167263297940163      10.161254913736302
   283   3      1.8491246021076806      14.195018642674412       8.107840602031759
   284   3   -0.091105345341792321      14.181905936866293      10.156021151072858
   285   3      1.9458586470281594      12.212227047089344       10.17899647286306
   286   4    0.096827502073716973      16.207828299560116    -0.22970637238429048
   287   2      2.0076698343056902      18.185076299265013      2.0150780287101733
   288   3      2.0615597174454989      18.352692957930675     0.12975298186193696
   289   3  -0.0082903842177783661      18.502479547650353      2.1109497351667939
   290   3      1.8154815959657074      16.275901202365471      2.1377476996992835
   291   4    0.041654580034629754      16.013866811243773      4.0360903048592878
   292   2      2.1076656888241967      18.161381860861777      6.1335347039961077
   293   3      1.7946480105875655      18.301886203492089      4.1560744475252642
   294   3   -0.064357176032655367      18.506748699271302       6.218221766916705
   295   3      1.8100078918550129      16.253661407956976      6.2168416370960005
   296   4     0.19556479509639721      16.037317879609482      8.1833314668418335
   297   1      2.0335628925225695      18.186174457131948      10.071549977575682
   298   3      1.9264799160077299      18.383857867765688      8.0627701113058894
   299   3   -0.088976544559889847      18.531884391774764      10.080937781217861
   300   3       1.768756411860497      16.156497704531727      10.075364925422862
   301   4     0.17810531844632602      20.184475052709598    -0.34033577404990034
   302   2      2.0677850960629356      22.282593162795116      1.9406407390371587
   303   3      2.0446135819820923      22.240543710179395    0.055826226366397891
   304   3   0.0059631867381600362      22.241141862582488      2.1946425655384805
   305   3      2.1059099582990624      20.299321606482088      2.2537693351230681
   306   4    0.086224663326875089      20.064179882677131      4.0042768023835436
   307   2      2.1134229595946534      22.248737342122624      6.0748914879658686
   308   3      1.9190506292021943      22.411376275812859      4.1708974411613449
   309   3   -0.029311686794497756      22.369686679898791      6.2296820726933149
   310   3       2.041389730102444        20.3357532533478       6.118578944317683
   311   4     0.14894374005786767      19.991503557225943      8.1141302492966538
   312   2      2.1366709240242474      22.243747160778764      10.169352856058497
   313   3      1.9418524818725693      22.382307188643743      8.1570479673988636
   314   3   -0.060899850176351217       22.26999772105977      10.178487385722732
   315   3      2.0446456592897833      20.329692580528526      10.235648426353325
   316   4      4.1528833413705089      12.080084823486906      -0.140109582421338
   317   2       6.131809362489494      14.161295827323743      1.9645151920518729
   318   3      5.9650404358138926      14.151963173088401    0.065297284816788606
   319   3      3.9725521219277353      14.402231116035875      2.1209329465983813
   320   3      5.7670310992827218      12.236379081927417      2.1106920678735523
   321   4      4.3342654377038068      11.952754653173315      4.1029762806527801
   322   2      6.2090264931644397      14.121530635122111       6.074426109280509
   323   3      5.9193102707405005      14.251283286112418      4.1011800043613649
   324   3       3.967425770383517      14.365600711388188       6.141396798380236
   325   3      5.8544289051373308      12.201556173282745      6.0371181663807105
   326   4      4.4487179711630267       12.05210171634314      8.2214771310312198
   327   1      6.1304356635432011      14.170674475889523      10.084394603019019
   328   3       5.924471918687555      14.113607081011285      8.0556401346253939
   329   3      4.0326275204058533      14.281504659835701      10.141530794449036
   330   3      6.0063978847488491      12.158594050147848      10.262393159124482
   331   4      4.0241481174649536       16.31101645135125    -0.29909775127586991
   332   1      5.9776544929029329      18.180402622448387      1.9470529997090573
   333   3       6.102512783239245      18.343353731612833   -0.068993243591771641
   334   3      3.9400809025620442      18.188186485491254      2.2886078481579526
   335   3      6.0960195737723781      16.145581865489593      2.1370661006226039
   336   4      4.4025595415549903      16.336245288830774      3.9844448179245235
   337   1      6.0679423728981661      18.252186189765951      6.1002920790780992
   338   3      6.1459269103103207      18.127238425239085      4.0846278487551606
   339   3      3.9750032508881259      18.157309127841557      6.0386576575240909
   340   3      6.1016899201127544      16.166092962862791      6.2812928037713425
   341   4      4.4457779884819599      16.176681017256854      8.0631938446509643
   342   2      6.2373181633881138      18.242991423082028      10.089434923987866
   343   3      5.8761826062098494      18.306480944114806      8.1447290559935688
   344   3       4.038808870935779      18.177437346285515      10.320562201239513
   345   3      6.0661983736245846      16.244391627185919       10.04752705548508
   346   4      3.8214105238220819      20.242387871045139    -0.40697346421654079
   347   1      6.0023409964842767      22.242188123522681      2.0085605989048649
   348   3      6.0671725625249984      22.079750437573942   -0.038849809432253732
   349   3      3.9755519132356252      22.410845388138736      2.2202180197704808
   350   3      6.0296884839924978      20.238840003298357      2.2128051876346544
   351   4      4.2571034911558687      20.124486486419492      3.7612946334345096
   352   2      6.1875839104764552      22.230927929531447      6.0411734373446437
   353   3      6.1015869940595415      22.480396342797413      4.1238298550511612
   354   3      4.0087760323479324      22.481671247782419      6.1167994049619967
   355   3      5.8749449378396967      20.311858121804637      6.0350029029165286
   356   4      4.3881002309006769      20.204111515911659      8.0987736931906937
   357   1      6.1172032050369394       22.28891233520072      10.096316480229017
   358   3      5.9069848768030342      22.158259096254397      8.0839839689876687
   359   3      4.0055963296157993      22.446436870688089      10.197598124459503