(written by ASE)

1080 atoms
4 atom types

0.0      24.299999999999997  xlo xhi
0.0      24.299999999999997  ylo yhi
0.0      24.299999999999997  zlo zhi

Atoms # atomic

     1   4   -0.028434852418306737    0.062954102600609407    -0.29302022652451942
     2   1      1.9981876961385669      1.9696674134995422      1.9831143273225282
     3   3      2.2575802511650411      1.9545802603203213   -0.047369951164917476
     4   3   -0.046955220166305121      2.2855046888206654      1.9737210936084293
     5   3      1.9254172057424401   -0.070585917693264624      2.2039412048408842
     6   4     0.17756040017205452    -0.12732768494137062      3.8881195954935763
     7   2      2.1466345675030296      2.0491625933357041       6.027414871196739
     8   3      1.7785707141731668      2.0167027228351544       4.134476024101521
     9   3   -0.090736596302403175      2.1865262931266747      6.3001883950088509
    10   3      1.8103746219129369    0.061774159880754825      6.2123849710627681
    11   4     0.14610551173598751    -0.15540478445522798      7.9841854551983307
    12   2       2.051958374974475      2.0428983845853712      10.091531548421887
    13   3      1.9845375777950649      2.0872126916453486      8.1641056648483534
    14   3   -0.095849772378495193      2.2527304826800343      10.115551867053885
    15   3      1.7696837788547433    0.081278851732981799      10.152659347410408
    16   4    -0.10964112953919314      3.7361339885353382    -0.12442044644967287
    17   2      2.0738120829440647      5.9268543947453205      2.0043716868557673
    18   3      2.0146935389077254      6.2226880415174524     0.07917621859306101
    19   3    0.016834337172788524      6.0734801424105793      2.1110600685727792
    20   3      2.1170211724879979      4.0579098697308496      2.1387571030938766
    21   4      0.1467937864604035      3.7757361341972282      3.8365927591599842
    22   1      2.0888863366024317      6.0009949322238061      6.0433604047217919
    23   3      2.0025390944155346      6.2970821387842326      4.0093198120930049
    24   3   -0.085120363457035289       6.083778494062595      6.2520397368926126
    25   3      1.9549761694899657      3.9848241399837367      6.1678355741349034
    26   4     0.24736506953735191      4.1041622867734544      7.8600875362135065
    27   2      2.1672586171588422       6.129280447076793      10.127592912026426
    28   3      1.9385891813411595      6.0489601765422423      8.1742012032560485
    29   3    -0.12182790175704476      6.0081668485684014      10.150511809485076
    30   3      1.9656951575814239      4.0623528034818426      10.266623968427252
    31   4     0.13358040685260444      7.8256397054534057    -0.21051501301136116
    32   2      2.0623660538504027      10.057990914595264      1.9787653513609547
    33   3      2.0209495308224348      10.304359538989072    0.085519859967302589
    34   3   0.0050858457381959812      10.414181465942747      2.0798250989074267
    35   3      1.8148883335688066      8.1840434987867283        2.06078136888366
    36   4     0.22068708034398621      7.8412860827022763        4.04483299520024
    37   2      2.1468602439792503      10.027757813566822      6.1132887769332198
    38   3      1.8255957171592512      10.143090365557015      4.1132014976346651
    39   3   -0.044278386771326068      10.333139848167676      6.2199028660446141
    40   3      1.8259122198686644      8.1369904394810781      6.1707984261183411
    41   4     0.23916097394082589      7.8462451965863647      7.9693073413361537
    42   1      2.0812622036432065      10.060499709819309      10.100828730586224
    43   3      1.9937539440034024      10.295148528515124      8.0504312416413022
    44   3   -0.087793919221706693      10.316793234468031      10.077191912033584
    45   3      1.8016776583013179      8.0426196190874411      10.125759036781377
    46   4      4.1513454492865298     0.43365525974833607    0.041919389565932351
    47   1      6.0479081237815384       1.968099509412444      1.9752329543655294
    48   3      5.8872373851642132      2.1121696902732512   -0.068415223476386594
    49   3      4.0230146789179964      1.8597546602512431      2.1739743804092866
    50   3      6.2698136126834134   -0.061182577191542506      2.0226930894806898
    51   4      4.1385920325418288    0.031374048798596524      3.6773023740230815
    52   1      6.0929065847125718      2.0038951594561407      6.0882320209056218
    53   3      6.2332366840152682      2.0011618941541949      4.0494306796652237
    54   3      4.0069178608110887      1.9353436649588278       6.007289415155153
    55   3      6.2077055790153306   -0.032933790134075873      6.3044649637579147
    56   4      4.4978858813062415   -0.025477574888385923      8.0751819232525985
    57   2      6.2859120314691239      2.0731495124087855       10.15105381861763
    58   3      5.8916543982921787       2.123893942935037      8.1874161604526901
    59   3      3.9288993678188771      1.9383516336440874      10.292179381683439
    60   3      6.0073618961806421    0.082813455725881918      10.076671015750303
    61   4      4.4201271181911626      3.9607749196783661     0.13706198984943188
    62   1      6.0937542561587437      6.0918343296089885      1.9710563172645015
    63   3      5.8847439851094734      6.0368804390597273   -0.081706030132487617
    64   3      3.9905657691714729      6.2995742989098984      2.0735845603489937
    65   3      5.9254589507422244      4.0518817769194806      2.0696219217111893
    66   4      4.3276065414547196      3.6439307318949861      3.7738430827305898
    67   2      6.1480854722618439      5.9615051849662288      5.9549998485287539
    68   3      6.0944661959664881      6.2068466452389739      4.0523317286415477
    69   3      4.1014287968237717      6.3114470074945617      6.0309878491896143
    70   3      5.9456490827343949      4.0536018648785994      6.0707514632192705
    71   4      4.4533273960541502      4.0602691501122035      8.0849338072113994
    72   1      6.1549194174393431      6.0168930214942842      10.112171181598541
    73   3      5.8981570471312788       5.987426000705276       8.077041535730773
    74   3      4.0284425578272627      6.1387517424564928      10.260234389676626
    75   3      5.8436123782087135      4.0006341811201409      10.215013617553595
    76   4      4.1526030187353733       7.715282100500052    -0.10564809165534021
    77   2      6.1580578009004823      10.073429792408179      2.0347771644795589
    78   3      5.8961971123036392      10.336153878308279   -0.024522331072966974
    79   3      3.9762968718031848      10.067548552785505       2.171896460836916
    80   3      6.1953039183668768       8.177116320722476      1.9352980046181201
    81   4      4.0995904178912852      7.7214781625867115      4.0445644231824636
    82   1      6.0776917528688479      10.061091219777412      6.0557448844458008
    83   3       6.119164386773404      10.246924726978733      3.9820875642160147
    84   3      4.0166375244808936      10.014977567314553      6.0486134545190202
    85   3      6.1987629292306794      8.0476325163156837      6.3286691262059067
    86   4       4.363693814767001      7.8196991417824151      7.8816246919608499
    87   2      6.1035412552105868      9.9251782321125699      10.162069966606239
    88   3      6.0894918034253678      10.319660437260692      8.1556230491267971
    89   3      4.1163116991064452      10.245096479789819      10.134253156305872
    90   3      6.1473192332199682      8.0522475573809302      10.034377187980406
    91   4      7.9032319979102654     0.12882584074261424     0.34048051936066892
    92   1      10.154436561865053      1.9631772866846298      1.9838952231762792
    93   3      10.320512580340219      2.1766377491539362   -0.048093996814488761
    94   3      8.1215607914075534      2.1563973187021652      1.7956890613198184
    95   3      9.9488888427275199   -0.095433918338475185      1.6931220205890125
    96   4      7.6766485307849628     0.11296679425708479      3.9035845581666289
    97   2      10.125663356510257      1.9999335922215484      5.8771876374280252
    98   3      10.039201132612279      1.9198543004324373      4.0063729705654287
    99   3      8.1588401781801956       2.068371760339216      6.2814086121478114
   100   3      10.083101924987867    0.036757784900124948      6.3435350607774392
   101   4      8.2347399263386851     0.10245569476850663      7.8176565427009175
   102   1      10.202569988167737      2.0480559109615801      10.079321770679481
   103   3      10.213882605325644        2.27234269775201      8.0829475138705735
   104   3      8.1409328453781917      2.1453353203687668      10.098695458275294
   105   3      9.9676822167057306   -0.016424105237703272       10.02692527441164
   106   4      7.8995798321768342      3.6828547207325277     0.04634393705728479
   107   2      10.106603594626776      5.9268639871025295      1.9588719889665851
   108   3      10.169766666138853      6.1340459565614429   -0.011329547763376321
   109   3      8.1358790296865315      5.9255648255342903      2.0168709033996444
   110   3      10.395674215551152      4.0430760111314248      2.0997150792866357
   111   4      7.8593675672591532      3.7310235569216763      3.6211314648469455
   112   1      10.130986431010786      6.0126961668189614      5.9655524567956633
   113   3      10.131603941869258      6.3184804015964717      3.9514157542600241
   114   3      8.0800822709085818      6.0055526997809503       6.233241393670256
   115   3      10.241271064262991      3.9885503863487521      6.0411659866767629
   116   4      8.3776923800241079      3.8737090601842894      7.8363219687935866
   117   2      10.182662616109663      6.0877268909555795      9.9621302396750799
   118   3      10.258669896497299      5.9504384859211967      8.0840967456197639
   119   3      8.2017543310347136      5.9947543817321272      10.185961098499822
   120   3      10.266782443821834       4.103261031909291      10.422916083438366
   121   4      8.3332714083087076      7.8212973193272441    -0.04763041492722217
   122   1      10.072812430954739      10.094755436206935      1.9554814347199525
   123   3      10.056569916633036      10.462333195740687   -0.099761361075461852
   124   3      8.0333279924583323      10.432862997606058      1.9592754109662283
   125   3      9.8173133465280085      8.0866232236359483      1.8877508858996745
   126   4      8.3061905085461429      7.8687305416165829       3.742219974308779
   127   2      10.123840094325892      10.001380287331491      6.0528765170905361
   128   3      10.003255282849286      10.159457754280742      4.0724270165855199
   129   3      8.1241849233706258      10.383288262232531      6.1223875876496923
   130   3        9.93491060702023      8.1085755197457203      6.2061275047415627
   131   4      8.0317901969568961      7.8522575790392928      7.8046601680183096
   132   1      10.146918937042047       10.09708753351571      10.093449444617542
   133   3      10.102762700731269      10.414300838116567      8.0555309410714777
   134   3      8.0785455000525079      10.285051469298333      10.130326172109973
   135   3      10.128174421563235      8.0531919414830462      10.183108464164492
   136   4     0.25055780358399626    -0.11332707853641126      12.132398877295557
   137   2      2.1465986773555734      2.0373325862089846      14.188785028103609
   138   3      1.7427551982231315      2.0042704411578147      12.167733118765007
   139   3    -0.12045118989570484      2.0546900920487254       14.44512101126756
   140   3      1.8197683591433136    0.078150440162087942      14.211167092887836
   141   4     0.15410525014988363    -0.11812804455035963      15.898073264297999
   142   1      2.0312055259478181      2.0090811573874268      18.179301598426431
   143   3      2.0533926008107515      2.1560018799450664      16.138308605986307
   144   3   -0.055861287915940375      2.2628214648214788      18.074257125585877
   145   3      1.9363845328484448   -0.049080295278493925      18.310991876765662
   146   4   0.0090965670467390517      0.2199814159172887      20.256844873872389
   147   2      2.0925593896329517      2.1738351411218537      22.288397417460004
   148   3      1.6843610490629854      1.9678018271153255      20.314143796014427
   149   3    0.051665403821419369       2.017160854528063       22.58369892976086
   150   3      1.8403286352749442   -0.064824371419002824      22.309356257270231
   151   4     0.29316621535454485      4.0875517855847496      12.115004951516724
   152   1      2.0137016711377704      6.0359751830421491      14.143368853762649
   153   3      1.7910976410611839      6.1316214650299443      12.111104735599454
   154   3    -0.12913936764853312      6.2337638200764101      14.268613129644015
   155   3      1.8067680254120606      3.9967026388088933      14.083688637027043
   156   4     0.27129868593710921      3.8782667197498784      16.096303544660653
   157   2        2.08189738265779      6.0984645369343573      18.163802039247567
   158   3       1.908663578226562      6.0502122205482607       16.22984957105783
   159   3   -0.075145904620631601      6.0290157313688937      18.370310735386237
   160   3      2.0404268798691314      4.1177267681262455      18.418598173993487
   161   4     0.12419487786067156      3.8248266787785075      20.042263079918811
   162   1      2.0336533816242341      6.0461083145623009      22.273992624439078
   163   3       2.005364903192314      6.3065120447331768      20.237942769001801
   164   3   -0.054263023165492683      6.2242311866401598      22.351611874035278
   165   3      2.0464942484987545      4.0369294755824985      22.244906900665118
   166   4     0.32460716504277681      8.0259373223902788      12.087918542201736
   167   2      2.1463536113711101      10.128969576397836      14.137768150963094
   168   3      1.8216533880809536      10.086818581321177      12.186125867402501
   169   3   -0.085582062963333247      10.109722666934815      14.387327265536507
   170   3      1.9057903920355836      8.1657401499775979      14.253196250289232
   171   4     0.25967529590085436      7.9819744181880132      16.009198416355328
   172   1      2.0108953996545504      10.088593162088722       18.18101881741892
   173   3      2.0274835178110941      10.333522125045494      16.151130935253526
   174   3   -0.074418367552248926      10.407484838047708       18.22489867594409
   175   3      1.7655266720966185      8.0731550575743967      18.174461203136069
   176   4     0.21843738682863678      7.8573986802946445      20.130893722510027
   177   2       2.066123852700597      10.110604910428162      22.213754271878496
   178   3      1.8654507000838034      10.203575351276996      20.322750789070135
   179   3  -0.0012659337574418544      10.318607930953396      22.490261711446696
   180   3      1.8953544099138815      8.2330513087265409      22.409185396580462
   181   4      4.4051514992505441    0.073025335296947727      11.979194398824447
   182   1      6.1645255690938416      2.0167502584215087      14.143903830121806
   183   3      6.0111925162328639      1.9516109816600611      12.113934720251473
   184   3      4.0209213427110297      1.9600504061604742      14.073267850770982
   185   3      6.0860548914446788    -0.04869590657540309      14.400182804353456
   186   4      4.3257244034438278    0.096748349026222383        15.9643283406543
   187   2      6.1579293072172723      2.1061029222856709      18.227656241844546
   188   3      5.7711396224835969      2.0621728359138296      16.250032243099668
   189   3      4.0412906639298711      1.9867909381558726      18.557736756290943
   190   3      5.9601630989165004   -0.053498531735487451      18.147993603353612
   191   4      4.1438236970349926     0.27514993345009259      20.133457224635361
   192   1      6.0728393317799689      1.9978584041101417      22.185563020855962
   193   3      6.2447097805432827      1.8493211350144854      20.171017863945291
   194   3      3.9883460387016685      1.8131952075248838      22.024859789748046
   195   3      6.0922957825345758    -0.05229536113919224      22.310842378103025
   196   4      4.4579498255129453      4.0862605464226016      12.194828843093212
   197   2      6.2751746371222765      6.0517001043290097      14.215864155355813
   198   3      6.0619771747471658      6.0973360417385392      12.220042142949652
   199   3      4.0350089523245742       6.190118164009049      14.112329263025801
   200   3      5.9512541240210473      4.0760894248917072      14.170315387708975
   201   4      4.3708363887954906      4.0357598248068278      16.073457423907616
   202   1      6.0982167518861479      6.0520971854196475       18.23984817728962
   203   3       5.855624554971433      6.0024795108630569      16.172824835057916
   204   3      3.9923760455973598      6.1835729285202783      18.284691080147592
   205   3       5.848432420076958      4.0140647782822727      18.275567202685373
   206   4      4.0177025917870468      3.9616799073077931      19.930293013057231
   207   2      6.1125012639568057      5.9129531587089215      22.178856650648388
   208   3      5.9754114909305756      6.2590034266349335      20.276053599775512
   209   3      4.0683092417431022      6.3592667685281841      22.244085412254208
   210   3      5.9384487949056419      4.0458139107531599      22.182907004256528
   211   4       4.336447540282216      7.8139723746532646      12.369683384041801
   212   1      6.1261140782155099      10.098994711789866      14.166150500803125
   213   3      6.0354064773519918      10.099885896075282      12.122778292081696
   214   3       4.036493994476011      10.197983432378765      14.165097939571934
   215   3      5.9627715740065588       8.046144903634783      14.275373529104096
   216   4      4.2141326149932308      7.7715332747632662      15.976525555587212
   217   2      6.0310313745744599      9.9724282040087697      18.214450949573425
   218   3      5.9706948627738763      10.366017773443938      16.275139278298422
   219   3      4.0654035772649761      10.288476696021686      18.290725264962479
   220   3      6.1104833660981255      8.1250743856900485      18.082964718785181
   221   4      4.0337701232785568      7.7237340412086821      20.300304692404062
   222   2       6.120949109823318      10.087313642891919      22.286354894604557
   223   3      6.0196002993543285      10.178719646207627      20.269717778030124
   224   3      3.9865882287523036       10.16481991743615      22.231990681434588
   225   3      6.0916537081810587      8.1985114047047762      22.374389735129846
   226   4      8.3907981749038854   -0.032226548283709612      11.961306747334476
   227   2      10.177935288757103      2.0339488200606555      14.077778902194048
   228   3      10.047192508791367      1.7691084392510923      12.178766180209294
   229   3      8.1761555764050211      1.9840113585133485      14.468225909466579
   230   3      10.104043604045412    0.016377040030024027      14.480588467192389
   231   4      8.1796326905829186   -0.036162986065214363      15.861725692462988
   232   1      10.148598027594453      2.0040943874297175      18.194892745564506
   233   3      10.279661768875098      2.3505977204623529      16.201032518145379
   234   3      8.0581557483202868      2.1332894580248625      17.983605366733492
   235   3      10.094639827897947   -0.058077024690021593      18.099907555999991
   236   4      8.3363614127790608    0.012030254255062533      20.395506783967438
   237   2      10.146575542435494      1.9693192219984961      22.388640036210639
   238   3      9.8799135122463095      1.8003965690052641      20.229564236229987
   239   3      8.1438943529664698      2.2050472459520947       22.36506277919036
   240   3       10.00556647446578    0.023665488928195838      22.280879792423349
   241   4      8.5167993814168899      4.2896623538399057      12.034596807201732
   242   1      10.207242563808444      6.0615904277605202      14.208677136909069
   243   3      10.005285065822058      6.2230573618202758      12.192615325068317
   244   3      8.1481121048624789      6.0880380547757706      14.340021487145103
   245   3      10.145836172183541      3.9949016675922953      14.028332355979401
   246   4      8.3375750618023368      3.7573322831950575      16.108705041602391
   247   2      10.010173753073595      5.9791008471862934      18.238497845926531
   248   3      10.366214228824106      5.8714765592574167      16.283333464247733
   249   3      8.1309565739110052       6.082043401747411      18.085876114838079
   250   3       10.19798854127894      4.0906526724164998      18.525375649801138
   251   4       8.340600600464148       3.724562386906658      20.388150258875232
   252   1      10.124081184918628      5.9799360933564314      22.249536523392464
   253   3      10.132826890606545      6.4409435438939564      20.190199565268006
   254   3      8.0390377862249363      6.1112504896293727      22.266899544933189
   255   3      10.195870298861976      3.9773816668566355      21.893212180014618
   256   4      8.4049544167561727      7.9164879369602676      11.921720363862585
   257   2      10.018112159964602      10.047666646369457      14.176006954622453
   258   3       10.08933252088185      9.9474809341713719      12.270256866530016
   259   3      8.1365885920252534      10.190410536439309      14.390057091275352
   260   3       10.16934078102717      8.1656254273367832      14.544930722343516
   261   4      8.2118068028473434      7.9718669877263135      16.347833333520445
   262   1      10.091171504038988      10.081352337724953      18.234059109926822
   263   3      10.160128509591093      10.515533172813253      16.211396190903809
   264   3      7.9886092915538125      10.338620369149485      18.142682288779103
   265   3      10.054618016830146      8.0734390238313729      17.868562784575072
   266   4      8.3734326338973979      8.0196475287542466      20.404540090196932
   267   2      10.255381441129581      10.168843918970129      22.297504447833891
   268   3      9.8524584201692651      9.9656943292360456      20.270019297045081
   269   3      7.9960390344188168      10.333595443461576      22.315331318537769
   270   3      9.8963057634490443      8.2075936905308087      22.381063298511535
   271   4   -0.011559866611611892      12.090316815962471    -0.20092716592348425
   272   2      2.0467246766870124      14.106972951967091      2.0052600259658968
   273   3      1.9605707560056875      14.182159193947985     0.12844279569415801
   274   3    0.025130210894006071      14.207439673889994      2.2944714647963451
   275   3      2.0884125359754968      12.206139355582597      2.2720170130021971
   276   4    0.062400106725267877      11.920569018552351      3.9978583980779416
   277   2      2.0689485706317812      14.080189834372561       6.098542093134129
   278   3      2.0020154410145103      14.396690079453949      4.1648416592128967
   279   3    0.014215991145309678      14.243607632196694      6.1162255619054759
   280   3       2.068012434458717      12.190451206483189      6.0312521776066426
   281   4     0.23438664444725713      11.888679037055462      8.2187630514662562
   282   2      2.1755699601252516      14.172446342440081      10.172732181813432
   283   3      1.8884853276907099      14.180993803317689      8.1230080837578758
   284   3   -0.073362234727875633      14.188719500505586      10.200484827935886
   285   3      1.9608542515755527      12.207252362740025      10.187398267597899
   286   4    0.057013277111932888      16.256034298463366    -0.28789461181007137
   287   2      2.0444788544980486      18.166141501247921      2.0253575610632248
   288   3      2.1130069802392737      18.330658228129888      0.1528629129365591
   289   3    0.037967144241896122      18.470796390655618      2.1221188746819348
   290   3      1.8897642654040527      16.267209409250739      2.1600155209095138
   291   4    0.020289772830241911      15.964727274727156      4.0663204490781535
   292   2      2.1349421630510945      18.149105865386421      6.1419931547275111
   293   3      1.8445357977667363      18.334079351736236      4.1677568586606952
   294   3   -0.038051370927610843      18.491943657393634      6.2292188551502115
   295   3      1.8560174825913571      16.256734370364445      6.2390102154514713
   296   4     0.17118901866977715      15.998875232115395      8.1582229824579695
   297   1      2.0383669934310094      18.178862087783763      10.069973884946281
   298   3      1.9720817269102118      18.415667496221658      8.0687981224667435
   299   3   -0.068717201454674734      18.528964449606029      10.077126699537077
   300   3      1.7946742913823879      16.152380277339219      10.087439114958727
   301   4    0.096941824382273376      20.152147125012124    -0.29756904102674353
   302   2      2.0651646011730103      22.282287526183282      1.9329942662832442
   303   3      2.0879794748794458      22.264099519096888    0.063251502757034284
   304   3    0.016739531564198031      22.242835108679067      2.1905773876393613
   305   3      2.1062930478182649      20.297552473491585      2.2668311176280205
   306   4     0.11476742393678055      20.044347050503898      4.0318562643066036
   307   2      2.1199947992788188      22.266491667654048      6.0868755715959884
   308   3      1.8844091582579241      22.384297595447318      4.1864611280126134
   309   3   -0.045439671511454803      22.373791998060792      6.2535512421602188
   310   3      2.0369127176674642      20.350811487931956      6.1351508589469015
   311   4     0.17297347610010175      19.984786868452382      8.1011854059796153
   312   2      2.1427604311483277      22.256143372809536      10.171102555161665
   313   3      1.9573954118165222      22.405040490758982      8.1584481336550709
   314   3   -0.063760665891793675       22.28510909041481      10.131169558766722
   315   3      2.0475463579299995      20.340757397188021      10.242957485770701
   316   4      4.3442646767466879      12.243859083902713    0.073020470373130503
   317   1      6.0523345338257029      14.179561416728514      2.0006908712161038
   318   3      5.9710929993910469      14.050917307546881   -0.066972578062879429
   319   3      3.9425462453907518      14.372648200592225      2.1827198333331053
   320   3      5.7343792550323496      12.144834118946545      2.0460751187696102
   321   4      4.3503107712587861       12.04707930405965      3.9479304939234923
   322   2      6.1711882694690035      14.058905382538706      6.1502609993121178
   323   3      5.9668181241395084      14.386340183899296      4.1471443312635161
   324   3      3.9817220619242724      14.407136163515428      6.1194507456322222
   325   3      5.8709753871605983      12.177599955726594      5.9910745283896532
   326   4      4.3488578316825732      11.921005990389496      8.2987629909287985
   327   1      6.1258998483684231      14.162340441232008      10.100377160331814
   328   3       5.926238002248736      14.146879649009225      8.0824899937267602
   329   3      4.0425422525229253      14.268961042648385      10.164315422706061
   330   3      6.0167305979526837      12.147255639761029      10.287070228961765
   331   4       4.015589430147342      16.259503145493309    -0.32793273526274591
   332   2      6.1442742945401339      18.175353121732925      1.9498718876455627
   333   3      5.8848890089799673      18.334050555966332    0.052651866952778049
   334   3      4.0041207419536891      18.234351423478028      2.2962389431816534
   335   3      6.1203871876780873      16.247890823813069      2.0839838955408059
   336   4      4.1850950923353025       15.98952994171283      3.9669093734694343
   337   1      6.0651416310052531      18.261291010607074      6.0753171610822942
   338   3      6.2768241218597147       18.12457550382269      4.0551203468356585
   339   3      4.0022987012813864      18.177886246767912      6.0561017003341329
   340   3      6.2056007830937272      16.190016111863631      6.2564288217997897
   341   4      4.4471549586653172      16.197383500361418      8.0463181129459862
   342   2      6.2358545388752802      18.245561549394797      10.105801574813372
   343   3      5.8818770284022044      18.295449993786697      8.1500602138463556
   344   3      4.0425003082219337       18.18024516658296      10.326587649321207
   345   3      6.0623300648791245      16.244850799181105      10.068371948713139
   346   4      3.9869056144355342       20.10675000108245    -0.33829990864205683
   347   1      6.0131548953594933      22.205032932915824      1.9970767185824332
   348   3      6.0679726897236135      22.100993166530923   -0.050486954721978172
   349   3      3.9774936960227012      22.345548915144551      2.2903466015288245
   350   3      5.9246681216583728      20.193722060957853      2.3499958503809366
   351   4      4.1247605273691894      20.214737401632039      3.8510166687655008
   352   2      6.1897837759962293      22.241945970232511      6.0589106372132218
   353   3      6.1914906203413098      22.412236926149429      4.1299707426702073
   354   3      4.0156043189663437      22.472737706339682      6.0849271648487848
   355   3      5.9028533422552751      20.309671390954627      6.0228520411558053
   356   4      4.3837946811392507      20.177346930702686      8.0966323196002339
   357   1      6.1204669538809924      22.289106747952069      10.093682800645666
   358   3      5.8847482875443582      22.163856867776982      8.0847615074231971
   359   3      4.0088391716261889      22.450765720750354      10.218966675255301