(written by ASE)

1080 atoms
4 atom types

0.0      24.299999999999997  xlo xhi
0.0      24.299999999999997  ylo yhi
0.0      24.299999999999997  zlo zhi

Atoms # atomic

     1   4    0.044593245867901039     0.10091274211154387    -0.30663591214250685
     2   1      1.9959642021588568      1.9529438226395976      1.9712449570145911
     3   3      2.1473257799585599      1.8612613631643091   -0.059571973640803758
     4   3   -0.073396551772014235      2.2502913471329098      2.0012619977791286
     5   3      1.8875847988612762   -0.082626952298295545      2.2042154078722835
     6   4     0.21228891911530248    -0.11358153930087424      3.9052360469522278
     7   2       2.152025894060468      2.0432575237451411      6.0306554943720831
     8   3      1.7776151502587327      1.9973723335527858      4.1350319212931348
     9   3    -0.10417036566855159       2.184709784597934      6.2615096509312602
    10   3      1.7863322797928434    0.047694359470330058       6.192452474451196
    11   4     0.13912797143580738    -0.16489539602944461      7.9892082181031343
    12   2      2.0558154036783352      2.0303377233346223      10.095175586678423
    13   3      1.9598116071892739      2.0619439231101375      8.1545446363164675
    14   3   -0.099484111868609976      2.2473762414308349      10.111861475631391
    15   3      1.7658930940062592    0.063225820069986838      10.150175057421102
    16   4   -0.081748024750360568      3.7366776664064156     -0.1409469329456757
    17   2      2.0920592919439325      5.9248199693094197      1.9813099755498438
    18   3      1.9538601017761843      6.1812807470701898    0.076718754550863341
    19   3   0.0032893173568020505      6.0962746809259487      2.1340911753523009
    20   3      2.0740428549178267      4.0460402555388049      2.1552643248139027
    21   4     0.17647819029242345      3.7962690636968199      3.8394053151150254
    22   1      2.0945392911271239      5.9923615090084885       6.037549124508784
    23   3      1.9881690628919877      6.2770771556664888      4.0090699240115448
    24   3   -0.086920910570128559      6.0809143217382129      6.2223158434975057
    25   3      1.9522213443767324      3.9740836891198601      6.1591517954532486
    26   4     0.24793148569404969      4.0971872513684904      7.8616850473006625
    27   2      2.1665543000748402      6.1174357627550719      10.121249352481867
    28   3      1.9135947215486875      6.0316486405040948      8.1685481254028822
    29   3    -0.11818284481192909      6.0247708383997978        10.1790090846973
    30   3      1.9635963453857297      4.0477824393138748      10.238651247778654
    31   4     0.14248368987319693      7.8060001114554787    -0.18362926831714599
    32   2      2.0665232714859503      10.045082737132741      1.9685155753557626
    33   3       2.044610610868633      10.291265908156864     0.06380677636462774
    34   3    0.037461746011943541      10.408754323156016      2.0704311800232365
    35   3      1.8420051257040901      8.1738605366795394      2.0448604776210608
    36   4     0.21207745787054152      7.7975594106852339      4.0375782582226973
    37   2      2.1485214820892913      10.012490326969219      6.0995917318197179
    38   3      1.8626394540656919      10.161452836714316      4.0952509764145955
    39   3   -0.013338309967558391      10.358007911914186      6.1847310658751979
    40   3      1.8376683193447603      8.1277218111449585       6.160986241085844
    41   4     0.22620799916544648      7.8206315962962387      7.9516643510717451
    42   1      2.0750779148315863      10.048640947662784      10.078745905742979
    43   3      1.9919715790049344      10.293346350674769      8.0393626720071314
    44   3    -0.06281364478777629      10.385650880362395       10.10501339622494
    45   3      1.7941455262841728      8.0319622203343446      10.132088034902589
    46   4       4.198984145870936     0.42853339268444673   0.0066745499489772233
    47   1      6.0320783112125032      1.9859410941827222      1.9625215718486824
    48   3      5.9198815884174953       2.107618601630171    -0.06105992724836367
    49   3      4.0099405604832414      1.8587429901121542      2.1793661917045832
    50   3      6.2573371341550992   -0.054662314889597503      2.0071284621573051
    51   4      4.1952659063116817    0.069451991140420388       3.676586975336039
    52   1      6.0914598058999649      1.9951411454854766       6.085983391826832
    53   3      6.2228472973905431      1.9568382521298824      4.0492946432729839
    54   3      4.0052500835927862      1.9120636382291401      6.0135254571968373
    55   3      6.1934587425204599   -0.042070962670305675      6.3081161413369715
    56   4      4.5124113078876702   -0.014408137188285921         8.0948447601778
    57   2      6.2818663804301869      2.0692609225513214      10.161619148545256
    58   3      5.8922851699917445      2.1051534295593788      8.1863772494147433
    59   3      3.9274995051390968      1.9205222831220343      10.269469468579688
    60   3      6.0064982610467164    0.074175251512039464      10.088744411537155
    61   4      4.4527530374338653       4.033914166233477   -0.034028412488729079
    62   1      6.0737203381386369      6.0666136054438367      1.9845921284098906
    63   3      5.8973905537054163      5.9909434320274331   -0.049153049131299767
    64   3      3.9898379713836092      6.2405167550233021      2.1081890464578716
    65   3      5.9596883691771634      4.0440257202375864       2.108911567266516
    66   4      4.2856757022581116      3.6767691858992708      3.7073679776177855
    67   2       6.145844271291379      5.9440262752897892      5.9736951015200592
    68   3      6.1185991519513871      6.2168218012015277      4.0662900536284798
    69   3      4.1052710668573527      6.3007005748704925      6.0280951341678364
    70   3      5.9658791748382916      4.0387443161947187      6.0656829501957921
    71   4      4.4563048456045298      4.0474896789124344      8.1078792960037269
    72   1      6.1486482624745404       6.012672229518337      10.115306625615863
    73   3      5.8937746791883434      5.9758012821991766      8.0769151317369108
    74   3      4.0247860252285577      6.1344667939068529      10.231406743629011
    75   3      5.8306140617263011      3.9914831947835436       10.20266738492883
    76   4      4.3123284011637191      7.8137642860634715    -0.23757710844923571
    77   2      6.1496680490103177       10.04315935347476      1.9721635676534151
    78   3       5.920380813212514      10.287074175578285    0.038416210006397132
    79   3      3.9858229966761036      10.072078083846311      2.1938809579285068
    80   3      6.1850235695051712      8.1393596289843071      1.9776741621996843
    81   4      4.1059432262687334      7.7106197222034911      4.0431804166096308
    82   1      6.0811604531662544      10.054125272742736      6.0416046686262375
    83   3      6.1255162826932397      10.268039009574952      3.9858182765864125
    84   3      4.0231946869890116      10.009849546541334      6.0557012410400111
    85   3      6.1972285663191373      8.0430724623443535      6.3284987304264018
    86   4      4.3770714363691745      7.8261671248309943      7.8826441930377271
    87   2      6.1035353748206251      9.9254148416843382      10.171801629591089
    88   3      6.0885196888670521      10.290956983374153      8.1596016145931856
    89   3      4.1092647312151085      10.221524506778954       10.12031955777014
    90   3      6.1514451277828526      8.0526637853374226      10.058659226352011
    91   4      7.8964554608652344     0.14736784651582785     0.31577693692171982
    92   1      10.164103364228835       1.957714174246179      1.9862767733415345
    93   3      10.279205280481079      2.1880653962169934   -0.047870280572320748
    94   3      8.1185117123461321      2.1296134148846382      1.8271231820662088
    95   3      9.9526114490339879   -0.098123001189916084      1.7046833756013309
    96   4      7.7219258468756413     0.15411661865327328      3.8499185156682429
    97   2      10.128784046297943      2.0012728339189221       5.873571985884448
    98   3      10.045609877058899      1.8725341403867268       4.010754895952223
    99   3      8.1615365254201713      2.0542044936286654      6.2785606298232111
   100   3      10.089963785834364    0.033051729760911107      6.3658583396702024
   101   4      8.2753251242668942     0.14306915441798249      7.8671132414978331
   102   1      10.196501883396939      2.0498638365112578      10.095903954580839
   103   3      10.195603992976551      2.2649159070181004      8.0930812791654692
   104   3      8.1364336070603507      2.1414775430992812      10.095972071243143
   105   3      9.9601409515544184   -0.013107255499264611      9.9958577239312731
   106   4      7.9015055502521321      3.6804737186903083    0.047460706607489203
   107   2      10.098651629396608      5.8886907663688888       1.968291163287712
   108   3      10.162427156881309        6.05904978036041    0.013474199687992308
   109   3      8.1331592445372802        5.99219543454734      2.0482907624695588
   110   3      10.366421887007805      4.0250691992284766      2.1368949040997753
   111   4      7.8250461372666349      3.7209780099501697       3.633150561801576
   112   1      10.126638284696069      6.0090415008262132       5.965868811494401
   113   3      10.116066850773974      6.3515084677022138      3.9526128650037782
   114   3      8.0837458443263603      6.0225847626935378      6.2276456920225369
   115   3      10.231841694361545      3.9804702850643552      6.0454721715390383
   116   4      8.3738494401157215      3.8762166740558541      7.8350161463787691
   117   2      10.164440396195271       6.085418438769878      9.9631631211947553
   118   3      10.253419926398996      5.9306335544355537      8.0867546743771275
   119   3      8.1932309528633844      5.9905046051576107       10.18984343870139
   120   3      10.259399851015734      4.1034552317951265      10.438389772085458
   121   4      8.2369654286166032      7.8049193154766705   -0.047314202641695294
   122   1      10.076771925898603      10.124493716327116       1.991363463502748
   123   3      10.116611585144906      10.445329875589575   -0.075155809937605345
   124   3      8.0445970758297296      10.392910366222255      1.9595775812692444
   125   3       9.921388656110901      8.0994331458928404      1.7671536628993993
   126   4      8.2425029994147216      7.8284256989797658      3.7502961909108459
   127   2      10.112775703789882       10.03066297040378      6.0030048535642395
   128   3      9.9997146087550686      10.112308269794335      4.0635395826531395
   129   3      8.1213937562964116      10.358187843554711      6.1297621810740974
   130   3      9.9602765229206991      8.1216859588405583      6.2440516599583313
   131   4      8.0535253494777788      7.8931479509998823      7.7806122565894622
   132   1      10.140475381518749      10.102221248072755      10.088631239868887
   133   3      10.085569256875461      10.436984118095101      8.0643185836388582
   134   3      8.0722087861807612      10.297703000406996      10.141961284557743
   135   3      10.118007758866653      8.0557698481050934      10.172813468460369
   136   4     0.27114520938570985    -0.10269236194872887      12.178136161512748
   137   2      2.1762781507917226      2.0175953465604755      14.216234748857289
   138   3      1.7501756715749448      2.0061014477338457      12.162540699111192
   139   3    -0.13047931938771756      2.0487291970264976       14.41443461446385
   140   3      1.8073124837887196    0.068611756890791228      14.171389430947205
   141   4     0.22058485949375684     -0.1389717007264418      15.931643897136217
   142   1      2.0474686016904169      1.9808471821223859        18.2090619183809
   143   3       1.998509828381589      2.0791102057481021      16.152317145187698
   144   3    -0.08141707762280731       2.189890341318995      18.168032097361134
   145   3      1.8628415836249081   -0.089712096055915069      18.369207683954674
   146   4      0.2054719303405898    0.048523565706892383      20.146501856268241
   147   2      2.1090454568804464      2.1463159391908726      22.270707470130173
   148   3      1.6801416894713788      1.9474554616158368      20.320942967528239
   149   3     0.01920759412543465      2.0727342311304477      22.534867619483311
   150   3      1.7534171272296679   -0.090351893776402736      22.264535673258894
   151   4     0.29829701845937112      4.0406390836434838      12.116495041338959
   152   1      2.0165216344968808       6.020131582770869      14.161617395873575
   153   3      1.7989316452604034      6.1012335786453393      12.111757091694622
   154   3    -0.10825890051526395      6.2334986280641935      14.268534905112297
   155   3      1.7909753339371048      3.9792207653952318      14.120897366956573
   156   4     0.24054337253489311      3.8224659932993883      16.075301237805007
   157   2      2.0750681915499505      5.9381576070463131      18.230183752964784
   158   3      1.9035818333979839      6.1619355889759859      16.282539725727201
   159   3   -0.041675912639639622      6.1669174628950927      18.366296814191756
   160   3      2.0028620044698986      4.0679206142500757      18.319995428589774
   161   4    0.028605269789262755      3.6994276882188624      20.158036040832439
   162   1      2.0451493120927049       6.022686982916313      22.277224154905149
   163   3      1.9920359438407278      6.3125334262428217      20.217213192700061
   164   3   -0.058681602180726745      6.2253432970245282      22.306398547486427
   165   3      2.0580080392994611      4.0116731270405852       22.29005728825507
   166   4     0.26064314767796048      7.9153769238455407      12.036963584966326
   167   2      2.0913903199719623      10.141183187449975      14.043654449790543
   168   3      1.8664607648622964      10.133249346263932      12.155997546101784
   169   3   -0.037317703885295074      10.167748649762398      14.376611021129062
   170   3      1.9158143176262539      8.1936990180442333      14.261899790269155
   171   4     0.19677747227559333      7.8929961231476415      15.953587114598571
   172   2      2.0434000267966699      10.067445171717162       18.15381101929222
   173   3      2.0186503432428049      10.276687662979173      16.261893223482623
   174   3  -0.0014161790106828852       10.36094879492407      18.299991570347085
   175   3      1.8749682856811662      8.2010394286810193      18.239455155010209
   176   4     0.13497822106835189      7.7717726763805963      20.285491848732203
   177   2       2.086097846073192      10.083444583539517      22.223375081595762
   178   3      1.8688084431445606      10.237364191404275      20.304900153380451
   179   3    0.012058798004197659      10.345563052788988      22.480488899442772
   180   3       1.881307332002883      8.2132499875189282      22.387053590566484
   181   4      4.4298403752957114    0.062454317783738729      12.031392870781733
   182   1      6.1501307645432188      2.0275350992285892      14.153288928929358
   183   3      6.0113984120050299      1.9572914709873297      12.115909318172694
   184   3       4.025328425388464      1.9935497529756228      14.048693456127223
   185   3      6.0947366392695042    -0.03255533419140965       14.33591503302225
   186   4      4.4558938995893724   -0.054041473608552604      16.144008801733129
   187   2      6.1907174809433787      1.9933776047880323      18.182104293273547
   188   3      5.8158945428746387      2.0597290074815198       16.22042115604139
   189   3      4.0440751730322058      1.9535391150180303      18.524019489743324
   190   3      5.9772864101265091    0.030055167530675855       18.16736547393727
   191   4      4.2502946898938392     0.15585638787869202      20.008504709143605
   192   1      6.0875335334735574      2.0081558679122908        22.2053340478903
   193   3      6.1949170993786407      2.0432630272912156      20.188842540953594
   194   3      3.9936095114677812      1.7871232041879288       22.08971514175531
   195   3      6.1372952930988935   -0.040185749815325619      22.334301431596149
   196   4      4.4523027652683842      4.0932301366681747      12.238854142618029
   197   2      6.2584143125259404      6.0579709295626598      14.215429835913469
   198   3      6.0375623982178901      6.0736314114848389      12.211308646552796
   199   3       4.020421629874332      6.1876846793858995      14.100067349532184
   200   3      5.9497400774663554      4.0808542812145365      14.179692860612052
   201   4       4.403095806434159      4.0059542287131809      16.171848377349463
   202   1      6.0958293698374568       6.031876124586792      18.212180500859233
   203   3      5.8448567605421653      6.0225021755370109      16.165626542843679
   204   3      3.9608078813342322      6.2243293172589276      18.266141587594873
   205   3      5.8191312044315575      3.9984768506051109      18.189822363826263
   206   4      4.3236358675019408      3.8501761367068053      20.049554437581246
   207   2      6.1660244087343195      6.0137542934006607       22.17278492209109
   208   3      5.9535877002882973      6.1127573817957828      20.245392848401416
   209   3      4.0458789476018264      6.3140131104277808      22.259139351938689
   210   3      5.8568072590131584       4.068632563812387      22.252248122019687
   211   4      4.3166515094606694      7.8038618431085931      12.374579471722532
   212   1      6.1148354021401303      10.071143848055154      14.187048580804992
   213   3      6.0176112142487579      10.141646703824188      12.130637284826149
   214   3      3.9872753969016124      10.220305687319117      14.193120270279262
   215   3       5.945322808707135      8.0413154964747839      14.228859205726479
   216   4      4.1685946048756382      7.7612967130619577      15.990093641371901
   217   2       6.096990036202806      9.9868294264516955       18.21522652505039
   218   3      5.8832528855704807      10.319167642341332      16.277449859968961
   219   3      3.9636796196194206      10.206153061498846      18.353928444067321
   220   3      6.0744312007291912        8.12624920121781      18.136781518573386
   221   4      4.0960501432869965      7.7044887080093751      20.314999548181135
   222   1      6.0944701942339119       10.07897998338032      22.271969943864423
   223   3      6.0598943084718231      10.292104883241635      20.179372143107596
   224   3      3.9731101372386584      10.154365638014623       22.22094336472756
   225   3      6.1335371977840287      8.0450402702628914      22.381336922487225
   226   4       8.395817247322281   -0.023998517186383034      12.014289315631078
   227   2      10.178187026758673      2.0681005501686203      14.105043266606501
   228   3      10.060684459378601      1.7366398355151158      12.191021556692961
   229   3      8.1772767694391604      1.9959228260944888      14.453463829212854
   230   3       10.09964888190679    0.021882783658265025      14.505894560022849
   231   4      8.1734302965266252   -0.019857521322878921      15.865462999232347
   232   1       10.12951827536652       2.014075897553735      18.190729537031821
   233   3      10.270790221219125      2.4080732558378433      16.185515383925736
   234   3       8.082844300681657      2.1648121010934918      18.006095002773161
   235   3      10.086261221408661   -0.024763555201988138      18.026666282853331
   236   4       8.328154318073949    0.045273404765002828      20.407481822316917
   237   2      10.166237632447574      2.0230987483842138      22.384797280656251
   238   3      9.8823671101620345      1.7956482698275114      20.223499261584767
   239   3      8.1512487001113119      2.2246271119325205      22.347312436442728
   240   3      10.045024473938966    0.048607407498708594        22.2489251063399
   241   4      8.4956476729907422      4.2994961666596661      12.053241069751529
   242   1      10.182671514147994      6.0848256500273967      14.207443191332375
   243   3      10.002760404062906      6.2449531254085802      12.185394329426783
   244   3      8.1351235059614257      6.0640530045304635      14.304253974051139
   245   3      10.154818400226532      4.0095035645127171      13.971868842905959
   246   4      8.2901124026201387      3.8048747928840334      16.124923932772571
   247   2      10.044587009191689      5.9748535393430497      18.277242228450028
   248   3       10.32064524658683      5.8194760225782147      16.266077496124797
   249   3      8.1324715003984256      6.1126607450216017      18.060318978261382
   250   3      10.187050043253924      4.0823003100034896      18.519720976568006
   251   4      8.3109191715587745      3.7388210324788744      20.373483280765598
   252   1      10.124088016845331      5.9959650310628687      22.272729109191271
   253   3      10.075703897003805      6.4546647422340948      20.207610128887779
   254   3      8.0798667220493883      5.9885737325561621      22.273386774986992
   255   3      10.229611623618631      3.9889984666267271      21.866481667235739
   256   4      8.3927222021392165      7.9261825145901232      11.926100053679731
   257   2      10.010397492184891      10.014042414607758      14.185880908679657
   258   3      10.085671078396233       9.946597682036618      12.265590213629684
   259   3       8.129511169375137      10.198245969853104      14.384876937636689
   260   3      10.168112986470975       8.154536567299445      14.537363288943038
   261   4      8.2056429383153464      7.9522260210250844      16.405992644583065
   262   1      10.089032296588108      10.113060349935875      18.234287335501691
   263   3      10.165412364572735      10.540825197639084      16.184664310127001
   264   3      8.0098735979998938      10.241795071471726      18.057132233182166
   265   3      10.054716861753741      8.0919210374916997      17.857690511723927
   266   4      8.3176745052761358       8.066944321889606      20.429677380068753
   267   2      10.192983788159728      10.081997192957607      22.299031599320372
   268   3      9.8492994731394106      9.9449042403649326      20.260542271189383
   269   3       8.112022666320895      10.406941625867285      22.330357271782209
   270   3      9.8927015198984609      8.1521386162922909      22.437152015285591
   271   4   -0.042107385109885986       12.06352993411633    -0.17372510213893994
   272   2       2.068237257187298      14.112941873218043       1.973661678703281
   273   3      1.9714696894998058      14.268625630243868     0.08943632500075327
   274   3    0.056394068303555991      14.223598614642528      2.2695796494167695
   275   3      2.1194559815929481      12.218851192764756      2.2109256182484058
   276   4     0.06971025373839361       11.91673223999859      4.0018416773851655
   277   2       2.041287661061554      14.071780867225668      6.0773030986920293
   278   3      2.0578716655473679      14.401201565613471      4.1415914812730046
   279   3    0.056475091662630331      14.212865057496996       6.078350580754627
   280   3      2.1164472850048459       12.19229826636764      6.0321807165521184
   281   4     0.19411777953019169      11.863135910952803      8.1523016132960038
   282   2      2.1603962763587194      14.162361497405376      10.158811296457518
   283   3      1.9237954182367527      14.231681020829408      8.1100786793300959
   284   3   -0.033516794431202861      14.143210470456344      10.224954021129708
   285   3      2.0341803973290542      12.217506410303894       10.18944148522692
   286   4   -0.018667592063113962      16.144944247000673    -0.19598924299813109
   287   2      2.0548981449062755      18.191451674037751        1.99034803083465
   288   3      2.0453912949218487       18.32477975350945      0.1093103900539351
   289   3      0.0323779441518613      18.461700918444585      2.1534161098511788
   290   3      1.8886337160854294      16.289438431235201      2.1541072654850466
   291   4    0.043533086098221721      15.992158422246414      4.0137328420207767
   292   2      2.1351428937845136      18.163785664592623      6.1312644055458279
   293   3      1.8881955360418559      18.344815842967066      4.1507950434716214
   294   3   -0.029133197414987103      18.509025929569496      6.1755702299118571
   295   3      1.8743991832507487      16.267305632722682      6.2152284480976281
   296   4     0.21754404168506422      16.067052977402124      8.1561191460657252
   297   1      2.0687352615664167      18.204103819940258      10.075673923132868
   298   3      1.9321005845649328      18.389011702388739      8.0687668546807387
   299   3   -0.064263784417313799      18.535318594962163      10.108717407150971
   300   3      1.7762429701385438      16.182597537791153       10.08560973832086
   301   4    0.016721344845903954      20.217789893517267    -0.23532010465633998
   302   2      2.0917893383921604      22.280608059308022      1.9407341374274414
   303   3      2.0031632631137901      22.264863781354546    0.056692930443992651
   304   3   -0.011068881907244955      22.229589339791811      2.1817067318917718
   305   3      2.0813587534339941      20.298909088524663      2.2560453485285383
   306   4     0.13205729897531218      20.031922943835102      4.0300222245600139
   307   2      2.1201760951348056      22.270691590339485      6.0744068084500045
   308   3      1.8749690848709206      22.371175851695039      4.1709562547963186
   309   3   -0.060162200426943438      22.358346896966928      6.2443005612144926
   310   3       2.045394076599206      20.350192356789389      6.1337757322039126
   311   4     0.15650646182701425      19.976335876844349      8.0994137976461111
   312   2      2.1333303280608824      22.263831822953513      10.161290145225827
   313   3      1.9532001935073913      22.389030252564403       8.151873426230706
   314   3   -0.070529379743729026      22.244074368481371      10.096435170551175
   315   3      2.0756857434570462      20.333032944528629      10.269079831615498
   316   4      4.4054132531817611      12.110564904249804   -0.015616486163818527
   317   1      6.0475100858458779      14.154428676010895      2.0085220046580812
   318   3      5.9180966235676609      14.190942315092601   -0.061322396950919358
   319   3      3.9581754939991982      14.426635230490414      2.1434766519003676
   320   3      5.7622372753353073      12.144271583817195      2.0495122910657773
   321   4      4.3433824378728207      11.971245583503086      3.9085186194719879
   322   2      6.1427395021298361      14.044352730047937      6.1227153692356096
   323   3      5.9539048451026826      14.392044782560371      4.1400615351288153
   324   3      4.0003873155016318      14.451477237631185      6.1444421799656892
   325   3      5.8823436344010647      12.173436634694442      6.0215996349044341
   326   4      4.3213725109885353      11.863221200211342      8.2997660806431863
   327   1      6.1279012388485681      14.172242713876685      10.103663101815071
   328   3      5.9696838478753804       14.24227926776094      8.0744636585695027
   329   3      4.0375304828338434      14.368042986231155       10.11377580584236
   330   3      5.9728435554331538      12.156419970904155      10.250836358896109
   331   4      4.3435939028163135      16.129766614683966    -0.15897732933897188
   332   2      6.1707745731307613      18.183674697502092      1.9426185850787956
   333   3      5.8798710083500598      18.322643275917294    0.042406922579509551
   334   3      4.0032244213560588      18.232674566986439       2.246284315289572
   335   3       6.101886139094602       16.25543820850077      2.0527115768012067
   336   4      4.1536951296901421      15.985911792706681      3.9623873141735966
   337   1      6.0609396402431344      18.266762999409451      6.0563459736467644
   338   3      6.2198846186515562      18.190447251372358      4.0323181200493705
   339   3      4.0059509352180269      18.200371025169112      6.0793879759947727
   340   3      6.2138119861740302      16.214600106509774       6.214417129650311
   341   4      4.3718766875243826      16.087376784179408      7.9607047291523783
   342   2      6.1669584623385747      18.245918363331896      10.018629272647251
   343   3      5.9389876672882345      18.315989031509542      8.1321179241980293
   344   3      4.0875023482040485      18.184964507055401      10.397918709999903
   345   3      6.0853838099040294      16.274578941956616       10.18635680884414
   346   4      4.3587077217444037      20.244802703839735    -0.21243659850422306
   347   1      6.0331818114279834      22.222529055082727       1.993943959293716
   348   3      6.0780936719823666      22.041272385688998   -0.046105759740309463
   349   3      3.9835334712364276      22.362157517370246      2.2266419271545761
   350   3      5.9103367471589561      20.207420791027555      2.2688807195177541
   351   4       4.187437589744178      20.150792076355962      3.8809610119568365
   352   2       6.217720447637844      22.275294655754678      6.0394883171203464
   353   3      6.1729673003142125      22.395550608987602      4.1163303872176362
   354   3      4.0063892930097147      22.461214929855007      6.0989224211584929
   355   3      5.8579847047969649      20.326530900305315      6.0325006074071048
   356   4      4.3887802118639483      20.273826288971847      8.0121476396369573
   357   1      6.1284660312846144       22.28834661383862      10.115320945677661
   358   3      5.8999032930041029      22.150292942022219      8.0899305629905189
   359   3      4.0052061341268974      22.426922095149294      10.231795505227137