(written by ASE)

1080 atoms
4 atom types

0.0      24.299999999999997  xlo xhi
0.0      24.299999999999997  ylo yhi
0.0      24.299999999999997  zlo zhi

Atoms # atomic

     1   4     0.12487317984553871    -0.17360527676730539    -0.27941805136652881
     2   1      1.9737424775413106      1.9580773745461126      1.9794771818355676
     3   3      2.0771802125985017      1.9204634868938015   -0.046830044202546162
     4   3   -0.088880592902041852      2.2179565142543667      2.0498395615690725
     5   3      1.9561447643126293   -0.072031516968521475      2.2230454691701231
     6   4    0.034542718698492021    -0.21148195128975125      3.7704144419692183
     7   2      2.1415224916054587      2.0365165039274871      5.9976783109506142
     8   3      1.8298323199698876      2.0613053039018885      4.1152328855413813
     9   3   -0.098087758500028432      2.2014453719566864      6.2316056389923862
    10   3      1.7808437705064064    0.039772362689331847       6.168040761067779
    11   4     0.13748488727308361    -0.15505330258495031      7.9620598866370544
    12   2       2.043936796311864      2.0384772134424023      10.072171197956555
    13   3      1.9462884203543991      2.0090525586957177       8.155023099296141
    14   3   -0.099016411770144891      2.2224053775091783      10.140091202212094
    15   3      1.7591002966922953    0.058018949303245436      10.193475611586004
    16   4     0.23802742670280061      3.9058327239884107    -0.21078223222071404
    17   2      2.1075387767542169       5.937313283440683      2.0182647666068685
    18   3      1.9819394386287872      6.1953310853891264    0.086453557971641462
    19   3    0.007494501177814859      6.1316543308343583      2.1023740562216355
    20   3      2.0448908170454376      4.0547548868419279      2.0987820574738381
    21   4     0.13505839013238216       3.789091640080763      3.8210091762969229
    22   1      2.0928111497135684      5.9891188465644198      6.0328480582037303
    23   3      1.9627265720068123      6.2409126892551443      4.0101661443459378
    24   3   -0.081835478047050242      6.0510331020342489      6.2740682433438888
    25   3      1.9857165657111806      3.9692727690682261      6.2134440851441797
    26   4      0.2451800473829962      4.1176331739448111      7.8431477624643025
    27   2      2.1634093407518842      6.1283395852709024      10.124454735567744
    28   3      1.9516949508058996      6.0564124221486635      8.1731138756698805
    29   3    -0.11001306895227836      6.0071541933152437      10.142939014096113
    30   3      1.9620514369199455      4.0345080328014795      10.225158693958695
    31   4     0.13369928279711768      7.8044429285899968     -0.1876483330788076
    32   2       2.068309890089957      10.043034737395006      1.9682374511736302
    33   3      2.0349163563919777      10.236697302322828    0.064800179710744255
    34   3    0.052109645856997795      10.387416612718722      2.1099080210726413
    35   3      1.8700685621597746      8.1686742087724653      2.0854424311912112
    36   4     0.17662554240803832      7.8028564869279062      4.0041768208789703
    37   2      2.1167861381677948      10.005936746432234      6.0725950056239997
    38   3      1.9242172707063137      10.195391886797092      4.1034631598625877
    39   3    0.010613682223343872      10.364525572759019      6.1895533863635785
    40   3      1.8312558876035001      8.1209336716611578      6.1445465653040845
    41   4     0.21516829732386608      7.8210550638755105      7.9420798088373781
    42   1      2.0597232384806299      10.040188095075214      10.085944477135742
    43   3      1.9979439564668826      10.272443109863959      8.0487463410895703
    44   3   -0.048250116935951236       10.37891919426017      10.122166980950103
    45   3      1.8176781579879595       8.028251156413365      10.183931455681037
    46   4      4.2474334467983361     0.43034731294180012     0.13079124333721484
    47   1      6.0494113487457852      1.9967486442805862      1.9645341203403304
    48   3      5.9131282384906161       2.125731398876749   -0.058389667817170518
    49   3      4.0122595959609999      1.8586910778283712      2.1522502540122419
    50   3       6.209909788671002   -0.048068882013240992      1.9672009728373312
    51   4         4.1080014456536    0.024606327726392496      3.6613530038489444
    52   1      6.0893917198789893      1.9923733830839105      6.0840181027221982
    53   3      6.2224221642532518      1.9795587119721381      4.0459621131921475
    54   3      4.0011896102849374      1.8980458967726777      6.0354865673749218
    55   3      6.2023539738281457   -0.039787128007860571      6.2860554595344587
    56   4      4.5006904011219557  -0.0097381526389614601      8.0637438898911213
    57   2      6.2783012810588339       2.058485175391171      10.158945296546959
    58   3      5.8949287271187254      2.0982212500996478      8.1883114226545164
    59   3      3.9198959124845576      1.9132796828564285      10.263327805369935
    60   3      6.0022793297070463    0.067936098755414134      10.100812632290891
    61   4      4.4539175609684314      4.0198892030467617   -0.041966322495642382
    62   1      6.0859116650117686      6.0672063128170652      1.9816471105635485
    63   3      5.8958069086657954      6.0123146377181707   -0.062696097577839088
    64   3      4.0057669141718115      6.2473039970095083      2.1184123504175756
    65   3      5.9825340115988181      4.0521674369501079      2.1148487279335151
    66   4      4.3004425008171472      3.6524856074975101      3.7131369097074187
    67   2      6.1344610743446557      5.9349918929290375      5.9771659196678355
    68   3      6.1473178533806649      6.2300677080047961      4.0687836827050985
    69   3      4.1064643231235882      6.3071501950073987      6.0087472407454721
    70   3      5.9426931460654311      4.0329285729157558      6.0577151467627113
    71   4       4.437836003527555       4.033093383171594      8.0975275843053591
    72   1      6.1408623900380901        6.00758534999762      10.109725899985378
    73   3      5.8835697785350067      5.9764972592356749      8.0739321599399876
    74   3      4.0235329615167386      6.1128009594702126      10.271035348268031
    75   3      5.8309621193757497      3.9842233247260421      10.204727654419205
    76   4      4.2349581028727199      7.7858795212628129    -0.23582216528253308
    77   2      6.1658568033665233      10.051175912721119      1.9498898492172987
    78   3      5.9160798360257285       10.24645763372019    0.033517170861683647
    79   3      3.9941322213502759      10.070001320561431      2.1917042716097965
    80   3      6.1956402924722953      8.1430572120896887      2.0008294282756078
    81   4      4.1486811257055756       7.744907168594346      4.0304147642420265
    82   1      6.0713032217521787      10.048969695944567      6.0496157751466875
    83   3      6.0986305843657806       10.26685305329123      3.9999464934032898
    84   3       4.016578062824653       10.00673352543793      6.1210217549456676
    85   3      6.2010411380196508      8.0380480032606343      6.3229718089366012
    86   4      4.3468717801616847      7.8259884097148289      7.8632261124858225
    87   2      6.0953996565145303      9.9272846391429734      10.155249821809626
    88   3      6.0929545935603002      10.276978578243911      8.1589746722058898
    89   3      4.1010626491740725      10.219555885577558      10.093986258453727
    90   3      6.1446799677772859      8.0476751756436311      10.066781875204278
    91   4      7.9580116569634507     0.11541588354571639     0.35285771183745263
    92   1      10.185074440361765       1.938988027027702      1.9876040165714646
    93   3      10.275169217707276      2.2032259262875105   -0.047913056242969494
    94   3      8.1290423125771163      2.1070085812397816      1.8319602420870731
    95   3      9.9918112834378672   -0.092192701875777619       1.695361120458992
    96   4       7.676915383331778     0.14089828305810911      3.8649672050925852
    97   2      10.134986825860803      1.9923338890741054      5.8665552458492058
    98   3      10.051521868321595      1.8731208574201197      4.0068143848367432
    99   3      8.1614836298041702      2.0624142594338197      6.2621664614795707
   100   3      10.087959932255103    0.032176953762358559      6.3637659917226266
   101   4      8.3018070097637686      0.1593875623496859      7.8814288999677533
   102   1      10.199523048594726      2.0435602353024387      10.092139444505058
   103   3      10.184749653840347      2.2460873796000977      8.0921216809093064
   104   3      8.1335106688404544      2.1283042847291953      10.112613715167047
   105   3      9.9474912511313729   -0.022092472764808548      9.9993200313194013
   106   4      7.9562546274632542      3.6643622537719946    0.071127853443738107
   107   2      10.119515674507831      5.8922839661272963      2.0000255901221986
   108   3       10.17436144565127      6.1170596566460382    0.027344945682730683
   109   3      8.1417161447655602      6.0577098170395454      2.0089727402432156
   110   3      10.330669475123448      4.0267283914890744       2.110629214239395
   111   4      7.8415953322345091      3.7052622276231775      3.6498554661410445
   112   1      10.130693643429881      6.0066495431973621      5.9752044777247173
   113   3      10.097911211621449      6.3437872218022733      3.9614916030325498
   114   3      8.0774350289964723       6.000275398874499      6.2455301201672038
   115   3      10.232923667322462      3.9779386511414976      6.0591470437305368
   116   4       8.383436564169175      3.8757714589837131      7.8246324485260903
   117   2      10.169343994566381      6.0820554776296278      9.9685570247368709
   118   3      10.265035316455371      5.9450683039329393      8.0900694618513072
   119   3      8.1873899161940411      5.9857344275994615      10.166496906742438
   120   3      10.255675040046272      4.0970120407946649      10.429306799351767
   121   4      8.3200496412673157      7.8209515421523266    0.074114756822196148
   122   1      10.072333581045248      10.142183666447435       2.020638698953332
   123   3      10.085941724084991      10.403474884255347   -0.038284838632431976
   124   3      8.0524619696713859      10.391722825772348      2.0196679876601293
   125   3      9.9312478500106156      8.1277568859201477      1.7981464319282068
   126   4       8.207084593401607      7.8251848831614241      3.7885887712543154
   127   2      10.103389736112263       10.01373542037533      6.0764784539901973
   128   3      10.043243128515583      10.196853551959729      4.0978662400534427
   129   3      8.1114160129963011      10.388718173514956      6.1152512901024014
   130   3      9.9223190472973126      8.1158837858080251      6.2131787368704217
   131   4      8.0227012238425957      7.8496534366279915      7.8096385758830866
   132   1      10.126469412108936      10.105905721238079        10.0925803895852
   133   3      10.063192277183076      10.420724007842791      8.0703037223250664
   134   3      8.0652558821125915      10.278131462189178      10.163418425174774
   135   3      10.117100702208834       8.052760980108042      10.187750903357475
   136   4     0.26259764033288485    -0.10244786438345888      12.147249737753533
   137   2      2.1320538433704619      2.0285220692333881      14.192872364609148
   138   3      1.7606806543362981      2.0050387858718084       12.17296322763103
   139   3    -0.12841804457463374      2.0780408324012383      14.414258729480018
   140   3      1.7843794397730475    0.054407105333802039      14.180223979781706
   141   4     0.19723792339976934    -0.13456622464567594      15.941548240740589
   142   1      2.0530297604099639      1.9828908130648006      18.203069736976623
   143   3       1.975536668135998      2.0536484338832515      16.150548361870822
   144   3   -0.099177661161067465       2.269936289416056      18.182023972231494
   145   3      1.8686847589153912   -0.054806185288125073      18.335394116759709
   146   4     0.28823407809042972    -0.10019957675962628      20.269047680784535
   147   2      2.1250913419374875      2.0193245376341387      22.279310409114387
   148   3      1.7208085732892671      1.9885130152132291      20.308294550802742
   149   3   -0.091389127698823264      2.1636270999427762      22.504491586244733
   150   3      1.7142312253799687    0.029437107726517007      22.241985528972375
   151   4     0.28832844905813237      4.0501822972473116      12.113013153596487
   152   1      2.0146346013546594      6.0167081115784713       14.15650341629461
   153   3      1.7676597995840515      6.0560793898614893       12.11384458862763
   154   3   -0.099030064352861991      6.1874063827441352      14.287589506107826
   155   3      1.8519897579758038      3.9804818277387271      14.137020165545726
   156   4      0.2207205230201891      3.7957653171759222      16.110320888340429
   157   2      2.1006005954336429        5.94786912589732      18.220771529579689
   158   3      1.9581591571142727      6.2080486855625452       16.27140692975814
   159   3   -0.019931846642819367      6.1577362516448524      18.317960202196289
   160   3       2.012498856236991      4.0700631817345263       18.27894145740774
   161   4     0.18464307631995247      3.7675244713348928      20.083095445808965
   162   1      2.0285863588600863      6.0033980572372956      22.269785701119023
   163   3      1.9629789573328569      6.2312807767004808      20.217996402504429
   164   3   -0.057805686359606895      6.1312623564636164      22.421858534320428
   165   3      1.9433221078284457      3.9749679165794922      22.345941373157679
   166   4     0.24369277142460305      7.8765831220248437      12.096872146602607
   167   2      2.0858925152521275       10.13969924108939      14.040179438303905
   168   3      1.9078895573982928      10.199165877502676      12.152264194135366
   169   3   -0.018677671457978041      10.262123638031547      14.320147436658093
   170   3      1.8613281141176277      8.1870620987115537      14.189316016355637
   171   4     0.17911098393693564       7.850323353303434      15.950815534244713
   172   2      2.0314431662620813      10.054303060601107      18.143930323944502
   173   3      1.9914764851567157      10.177978832416814      16.257464435531499
   174   3     0.01760237125041034      10.356816445417758      18.314393764442112
   175   3      1.8833018632805434      8.1877800081785157      18.309402012959847
   176   4     0.13128648121878073       7.761243348188799      20.231294720673766
   177   2      2.0830943561907187      10.080020932701853      22.219829638299597
   178   3      1.9013650576977514       10.28067341060077       20.30175408447008
   179   3    0.021811227366919862      10.371974556719506      22.449656770306099
   180   3      1.8536864451961144      8.2023128912685852      22.350652178183026
   181   4      4.4007094834735438    0.072592627721439054      11.993425878396046
   182   1      6.1664714679911237      2.0183996895773979      14.144597587779106
   183   3      5.9786285871038478      1.9550693721753529      12.118795973999051
   184   3      4.0072322795883721      1.9066774700838454      14.119954221713291
   185   3      6.0494409882988025   -0.057174904961454873      14.355920242796225
   186   4      4.3010480204899526     0.14555948181395378      15.997929908352919
   187   2      6.1043094809420575      2.1099945488163101      18.214619007808849
   188   3      5.8239658363874867      2.0353635434337156      16.229434183755952
   189   3      4.0677690207170905      1.8265228509212632      18.407989224038722
   190   3      6.0668196198656519   -0.063732696508243591      18.240112094067321
   191   4       4.212659540771055     0.26468876815378045      20.121200738397988
   192   1      6.1220940277934766      2.0277665483920777       22.22276376735779
   193   3      6.1082676606036932       2.004493849922373      20.202052557736042
   194   3      4.0054454039912191      1.8839938888689702      22.095538872319157
   195   3      6.0788458320021626  -0.0087167641498934155      22.328068268415866
   196   4      4.4482136683021105      4.0917743518174117      12.200578391094821
   197   2        6.26091734138208      6.0495083621709194      14.210380865892919
   198   3      6.0592299518061781      6.0565820459324895      12.213857403904985
   199   3      4.0236519477176262      6.2066794122302236      14.099927535268446
   200   3      5.9127737334344177      4.0682656441413947      14.185598597485983
   201   4      4.3691072749965363       4.043039594242261      16.098185892081442
   202   1      6.0862847741273383      6.0551035400273578      18.213170210941797
   203   3      5.8250773771680278      6.0047722430299428      16.163077165332467
   204   3      3.9756360483502564      6.2314725475360708      18.273039160781298
   205   3      5.8194743139570946      4.0191142839494018      18.211862906138837
   206   4      4.3712114727145357      4.0480013922165021      20.276155770590815
   207   2      6.2216370373300212      6.0587994641490708      22.220202900179014
   208   3      5.9065399198771189      6.0441487187392644      20.264424014751615
   209   3      4.0239523648011692      6.2770875638660257      22.248718684843386
   210   3      5.8293110116994473      4.0825582518325936       22.23083045887795
   211   4      4.3332289782291671      7.8255747435933278      12.363880469788713
   212   1      6.1020625334384659      10.072125603392211      14.173872377893334
   213   3      5.9685457658690648      10.115853906897762      12.127569310981116
   214   3      3.9892453140882718      10.146973331568498      14.238384077524749
   215   3      5.9881778436112407      8.0307484993349689       14.23438312339395
   216   4      4.1558233983214503      7.7614880430668691      15.974653010303181
   217   2      6.0796300109977297      9.9835866989446576      18.214993240439924
   218   3      5.9533775288917852      10.349531438696848      16.272386075187665
   219   3      3.9682768729446223      10.211040731365136      18.307978625735661
   220   3      6.0897440873997333      8.1258358892737999      18.127330395318378
   221   4      4.1292918123284883      7.7244600999551363      20.361041473531007
   222   1      6.0902004293608822      10.090691892518526      22.274762594722144
   223   3      5.9955106820687503      10.253354375074588      20.171898332197909
   224   3      3.9699929578360553        10.1237989092809      22.235056752736408
   225   3      6.0860578423970892      8.0399614015270426      22.289898853206193
   226   4      8.4080346062072362   -0.029416467665893207      11.996067331265337
   227   2      10.174681851690554      2.0578044085499321      14.089374702251238
   228   3       10.07074682513205       1.731137252779942       12.18285332028211
   229   3      8.1799805465065347      1.9881177593342958      14.441629745318156
   230   3      10.096824480871399    0.014936200366924415      14.496388519244526
   231   4      8.2571382896191565  -0.0079900474559317577      15.934273023635541
   232   1      10.133045488433618      1.9822841808985006      18.210069513526193
   233   3      10.240998900347435      2.3547979453433157      16.195741568698118
   234   3      8.0345689282450099      2.1553520952953042      18.035219886865729
   235   3      9.9506880645778342   -0.066210929059314236      18.095645148823667
   236   4      8.4074802491599918    0.021461737696419347      20.248949520136954
   237   2      10.154808615140524      1.9910222511410269      22.380659683637226
   238   3      9.8791454762070039      1.8571405656266569       20.23940512646724
   239   3      8.1561616152777603      2.2469936716158956      22.369924786801022
   240   3      10.084732567847141    0.040102606922745893      22.251762119396563
   241   4      8.4886543958507392      4.2981389519443844      12.035187718368087
   242   1      10.182731598791227      6.0677718942129619      14.199285665119953
   243   3       9.958513896551576      6.2153743902993002      12.183568672948516
   244   3      8.1350546579008682      6.0476093117957106      14.357540440038189
   245   3       10.17506650232257      3.9957001054029453      13.994951404982698
   246   4      8.2906269187152155      3.7641075641473489      16.154142525128407
   247   2      9.9990444291608913      6.0131052402879952      18.276532578728943
   248   3      10.384442409466006       5.855295077282574      16.261447958267205
   249   3      8.1247421294058366       6.064264285614807      18.015874135546298
   250   3      10.221364679998281       4.102920901591447      18.471317467445655
   251   4      8.3661623951995008      3.7554217069257487      20.384215588541085
   252   1      10.136287752662357       6.010379985327952       22.27594966432375
   253   3      10.090475828599182      6.4430294952110678       20.17506572389437
   254   3      8.1053966231779686      5.9762621483641523      22.270367835930887
   255   3      10.233460166424576       3.999500494392016      21.896510429139358
   256   4      8.3816580298579311      7.9298016733529861      11.907922338452737
   257   2      9.9982500984831724      10.044065558463563      14.163977240004854
   258   3      10.116096418991239      9.9462994017113839      12.259012864765653
   259   3      8.1175512986724527       10.23558780460742      14.341083742679727
   260   3      10.130198034222495      8.1667975496124932      14.535753334848811
   261   4      8.1998432902162559      7.9479449263801198      16.329364482565428
   262   1      10.089785504367551      10.096319636621141      18.188825919631167
   263   3      10.127273761801542      10.532089422801272      16.185996257720934
   264   3      8.0062024617493606       10.28469851773416        18.1338683608829
   265   3      10.071603310135485      8.0680310148021999      17.817283059007995
   266   4      8.2836431066694214      8.2333303121216286      20.516907797248585
   267   2      10.103290876780246      10.165907045579365        22.3868613936394
   268   3      10.023650795010953      9.8745557229578136      20.199122817223881
   269   3       8.119089563793624      10.202108695128523      22.101215467713509
   270   3      9.9958248246234831      8.1553222741180385      22.369425129175543
   271   4   -0.039341205833404801      12.071745526319591    -0.18461135453281569
   272   2      2.0648777841389849      14.098579526309054      1.9969387083123962
   273   3      2.0111070113690679      14.317829635546673     0.10637226253479662
   274   3    0.073097155069948072      14.201422978133262      2.2515972229745467
   275   3      2.1394619894574456      12.205571363222443      2.1656261370414049
   276   4   -0.024129480947983759      11.981118548801778      3.9443173350599801
   277   2      2.0071359221605243      14.072889829740493      6.0584678513849788
   278   3       2.094975389627415       14.32824827361633      4.1341016955638654
   279   3    0.076292617931562598      14.149447423011603      6.1392521671276139
   280   3      2.1885861734368892      12.202338814447884      6.1142704602323583
   281   4     0.16017748030981144      11.828282654784125      8.1476024324080463
   282   2      2.1182373795208727      14.127107411265182      10.175201671259879
   283   3      2.0402496726521395      14.365205118230358      8.1011140813823044
   284   3    0.009297098989095795      14.184141895431827      10.193368937123925
   285   3      2.0712763375026579      12.213799913179926      10.118357012721717
   286   4   0.0041366662434062047      16.153359590894741     -0.1752243277997606
   287   2      2.0809583594659813      18.177680820469792      2.0000864589923331
   288   3      2.0051847128214444      18.240954838067697      0.1135313497094565
   289   3    0.024558748452541083      18.350785684023002      2.1821954306666518
   290   3      1.9151206531669887      16.274044426616566      2.2169121758668697
   291   4   -0.043352728058574777      16.099024834421609      3.9156208143858167
   292   2      2.1269726271213991      18.175002856072599      6.0815803912797444
   293   3       1.909208846858885      18.413572166218305      4.1305630863869789
   294   3   -0.047366548064505666      18.518693853620164      6.1390934951994032
   295   3      1.8642038457932162      16.275801716592344      6.1242137206473233
   296   4     0.28033597827006113      16.137920929740371      8.1593383765254792
   297   1      2.0540659745776142      18.228236449425967      10.060259646585477
   298   3      1.8594010213051448      18.302008667762578      8.0512370722968765
   299   3   -0.059469341440042643      18.544686352866659      10.152014005670619
   300   3      1.7970608145217011      16.218374339984727      10.135173871724739
   301   4     0.15341998650127625      20.272950719651337    -0.25602083695356886
   302   2      2.0207640781011484      22.286292732868393      1.9105778076884092
   303   3      2.0567364259689658      22.302176742923674    0.031610810114029358
   304   3    0.045761732738638546      22.249329381051687       2.126440320237887
   305   3      2.0447396255395502      20.270022624093745      2.1639555934046077
   306   4    0.064182743782462248      20.125318643016023      3.8643687222231264
   307   2      2.0992504017721982      22.278933701404384      6.0547178417033347
   308   3       1.870907275216614      22.281387269741014      4.1652810650838603
   309   3   -0.058149157738495924      22.324165546262307      6.2592187578290126
   310   3      2.0535840122413247      20.352884311560214      6.2354102492334649
   311   4     0.17155980976340873      19.984695400383643      8.0501922767152845
   312   2      2.1315815846723223      22.274427277448371      10.146016866716225
   313   3      1.9564496688588098      22.436054799948597      8.1582936843909319
   314   3   -0.069413839241297404      22.234007966623263      10.119783947877277
   315   3      2.0697838444975938      20.339954810255943       10.20222608553604
   316   4      4.4091744688501517      12.100046253917359   -0.013478650513993723
   317   1      6.0663071116409828      14.153792310295694      2.0334593728058437
   318   3      5.8955607093716269      14.150905098577391   -0.053976377688233504
   319   3      3.9735022741183603      14.430902903407087      2.1308478122658165
   320   3      5.7745416428965521        12.1383622873247      2.0296237392090108
   321   4      4.3380358434937021      11.932401768380577      3.9085121692411069
   322   2      6.1096658105951986      14.050559472767567      6.1063615711277359
   323   3      5.9872546306289856      14.363543071545275      4.1213059980167754
   324   3      4.0272608188202366      14.494504736437818      6.1292006281516258
   325   3      5.8654469286271063      12.175330313834566      6.0614324120576368
   326   4      4.1777740167332551      11.759182370371759      8.2116443735153606
   327   1      6.1069699851899752      14.173213907176228       10.10022603593592
   328   3      5.9836156534186671      14.350514991708909      8.0696969883206595
   329   3       4.026164968027703      14.421943889759589      10.098850497364802
   330   3      6.0154909632778395      12.153373905532554      10.291471774335587
   331   4      4.3001960847833027       15.97259552894913   -0.020458872275012707
   332   2      6.1621263033366889      18.196255974456164      1.9258102912833912
   333   3      5.8828086412018044      18.315111908047591   0.0074775122085990325
   334   3      4.0116720428080264      18.242132479144271      2.2261571568923832
   335   3      6.0913879945530702      16.256763728503238       2.022475599373966
   336   4      4.1551908574096377      15.968232535993986      3.9889994756427285
   337   1      6.0405559962042776      18.260871887139189      6.0403546850410397
   338   3       6.229396908501367      18.176316867870746      4.0080977816717169
   339   3      3.9942477225317639      18.212360249020996      6.0929531753105497
   340   3      6.3149598597918883      16.226948593622023      6.1000827556572395
   341   4      4.1972656712630441      15.967269287515821      8.0456139431823441
   342   2      6.1252349899102247      18.252989446905104      9.9730919069793664
   343   3      6.0007974267088571      18.316861485338091      8.0981177660320256
   344   3      4.0829121926053578      18.191736531694868      10.331408128143933
   345   3      6.1076763842849511      16.291660216574371      10.228579662004607
   346   4      4.1806282492902298      20.469983643523051    -0.24661687997321904
   347   1      6.0390295672819176      22.219533516605239      1.9945436407613191
   348   3      6.0122753150991919      22.056014028231662   -0.058942398354381614
   349   3      3.9771909425803789      22.304091958027257      2.2574899811773426
   350   3      5.9334824879924764      20.206928140576824      2.2721893498015513
   351   4      4.1637853373475924      20.256414130870198      3.8213060124008358
   352   2      6.2200258840142064      22.277982541238313      6.0351337297854126
   353   3        6.17469770811981      22.410341732850579      4.1056097438002599
   354   3      3.9965347498047157      22.464297265226453      6.0945973325273934
   355   3      5.8416235156948515      20.332456352030917      5.9971265645935956
   356   4      4.3627240418305409       20.27533081999216      7.9408567307077673
   357   1      6.1207889556631727      22.284858739293441      10.101259057815431
   358   3       5.896428190718872      22.149019070322304      8.0733761685119916
   359   3      4.0061132216669737      22.425316887498042      10.233649383097385