(written by ASE)

1080 atoms
4 atom types

0.0      24.299999999999997  xlo xhi
0.0      24.299999999999997  ylo yhi
0.0      24.299999999999997  zlo zhi

Atoms # atomic

     1   4    -0.19353790754216574    -0.11891335036932446    -0.23567783484742849
     2   1      1.9982663176314133       1.978044776918549       1.976825250212906
     3   3      1.9618748190921587      2.1009852064426968   -0.040435249808707524
     4   3   -0.085760030214498822      2.3200467836193255      2.0429456095534926
     5   3      1.8895390780455763   -0.048632620295076645      2.1625198058737714
     6   4     0.07700573247318547    -0.17868223908862016      3.8011341167656756
     7   2      2.1417533115302367      2.0386322687947462        6.00975538584568
     8   3      1.8119878891627081      2.0099845675113737      4.1327890430865581
     9   3   -0.098836681958573064      2.1965898933648584      6.2510837459085833
    10   3      1.7984850962340704     0.05723009833931765      6.2535414400318841
    11   4     0.12244887070829899    -0.17121571313176573      8.0053643326992425
    12   2      2.0414567734923259      2.0327518704495584      10.084424865051387
    13   3       1.946203661561797      2.0778127507126731      8.1727356734134489
    14   3   -0.098712700322201641      2.2381818171713141      10.167009511632983
    15   3      1.7824989647954204    0.070020391155250619       10.17634954655494
    16   4    0.034656331162903883      3.6726707371826337   -0.052868599886291931
    17   2      2.1395403367141475      6.0254956336626844      1.9651237788637574
    18   3      1.9575946026342652      6.0757883674311417    0.038858302201639695
    19   3    -0.04795026731944254      5.9733718023520037      2.0646781954479412
    20   3      2.0706665336493368      4.0911076585009969      2.2272157975383227
    21   4      0.2665977526282971      3.8970897572719294      3.8244105733719604
    22   1      2.0791521001334852      6.0100067988660086      6.0466121080478175
    23   3      1.9779038427151026       6.259324754032674      4.0266698736735824
    24   3   -0.096779217364738768      6.0259337159803739      6.2611686688030881
    25   3      1.9664796342754389      3.9787008735008857      6.1793700582039692
    26   4      0.2734659582952525      4.1257057100506511      7.8800515730185543
    27   2      2.1690753007544847       6.118250425214792      10.133128438985697
    28   3      1.9344269986994715      6.0477453579955069      8.1786728792888752
    29   3    -0.12562700270062924      6.0214146624215905       10.15426405575597
    30   3      1.9467954990015783      4.0554245645809353      10.252703831755582
    31   4     0.24197193948135357      7.8074107090290079   -0.031395262391996304
    32   1      2.0595323521900406      10.047291037397461      1.9893258550714796
    33   3      2.0096286517578341       10.34224667708861   -0.044430186120929631
    34   3   -0.026600611506197053      10.417322667980827      2.0343219742887375
    35   3      1.7658190870651536      8.0399329319136879      1.9868958554177627
    36   4     0.39624461699010494      8.0051088924270584      3.9777549742362566
    37   2      2.1879188551035402      10.099440321696518      6.1054124710539979
    38   3      1.8658066136731124      10.070069056757101      4.1037636472039054
    39   3   -0.063840051703471012      10.294695058058329      6.1703871930141556
    40   3      1.8204210552413207      8.1345047752512354      6.1461158345936049
    41   4     0.32198661971529363      7.9583240898388885      7.9471208978062462
    42   1      2.0555679375833216      10.062120428960693      10.083620486768897
    43   3      1.9494300423182842       10.19253309217809      8.0614239678426109
    44   3   -0.077475751926448969      10.331967084204134       10.17116292737904
    45   3      1.7831849813922722      8.0348172494975909      10.141203407534878
    46   4      4.4581610201681556     0.19289002714865561   -0.083493958044004377
    47   1       6.032594038463432       1.983417297767077      1.9446782518140737
    48   3      5.9753222498423328      2.0816628979279113   -0.074264816498217062
    49   3      4.0071248191733408      1.9200924932082886      2.1787906125502938
    50   3      6.2234827436263256   -0.044810827448661501      1.9398569711733928
    51   4      4.1666781167142437     0.10016378212520932      3.6318263159607533
    52   1      6.0924924216800322      1.9886231627986799      6.0715692281609037
    53   3      6.2398612269083698      1.9171476230830455      4.0467385998011709
    54   3      4.0003841534095157       1.897201390023465      6.0684054202766955
    55   3      6.1856723474891488   -0.039312327800146298       6.367398205183493
    56   4      4.4891834051718158    0.024213659219566454      8.0624967397194762
    57   2      6.2739257560097705      2.0722308125653481      10.169029196406786
    58   3      5.8922974578770679      2.1136214034956202      8.1973270332416259
    59   3      3.9166671890467053      1.9396029748958024      10.276953124643482
    60   3      5.9862884098151925    0.076365924351853784      10.096730689102804
    61   4      4.4861033598047593      3.9188970969707575   -0.025530302024656826
    62   1       6.096525308992617      6.0244603389805995      1.9770427143448703
    63   3      5.9094061839903196      5.9569412951070095   -0.069060516177872538
    64   3      4.0371790789481512      6.2159127470558646      2.1077829503612961
    65   3      5.9653859326778642      4.0301188050472216      2.1290881431753852
    66   4       4.225161149630738       3.705274393264324        3.66165904883007
    67   2      6.1470491822584927      5.9326784400862875      5.9751027761722133
    68   3      6.1486455036910135      6.2485270089884457      4.0693312131702655
    69   3      4.1101590536036232      6.2966988219107316       6.015915590317495
    70   3      5.9827373775051385      4.0317796440761065      6.0701045898995121
    71   4       4.447816911464531      4.0363243236369541      8.0976082079511542
    72   1      6.1447391977764374      6.0114361790638622      10.116757699324781
    73   3       5.889754220655651      5.9722070201753006      8.0743563979364197
    74   3      4.0257555562765903      6.1376044177280109      10.249940562023836
    75   3        5.83820304253587      3.9949484891643769      10.217281921689093
    76   4      4.2498065906314535      7.7430558225398318    -0.25472443146118612
    77   2      6.0420108942908968      9.9177600282523617      2.0075400033950555
    78   3      6.0024416948231938      10.349375397549359    0.057382531297401326
    79   3      4.0948500020733283      10.163829373136329      2.1060000900296059
    80   3      6.2220843384718076      8.0669857762576207      1.9148966855393625
    81   4      4.0680292522718595      7.7034335084915941      4.0811244409114469
    82   1      6.1073095843661305      10.034060703332672      6.0527383422238428
    83   3      6.1362242257814357      10.185888238970952      3.9884861967587124
    84   3      4.0651858485233543      10.003139197031844      6.0386909659256087
    85   3      6.1999269380812718      8.0330208926307911      6.3484367927929677
    86   4      4.3639479700174508      7.8212399176962135      7.8851403456864304
    87   2       6.098114293158309      9.9250095548254436      10.167535676731017
    88   3      6.1008014310974481      10.317906093297962       8.152559027909188
    89   3      4.1041541563375183      10.236079849062806      10.084944556212619
    90   3       6.142648016819801      8.0536989428554246      10.028340429368093
    91   4      8.0032779976477801     0.12977235563266701     0.30782204420201054
    92   1      10.195428228217413      1.9342226404397129      1.9761172701266061
    93   3      10.225707558822101      2.2526733161850947   -0.065733319838926302
    94   3      8.1375059783948487      2.1002687577842978      1.8465279211331163
    95   3      9.9817443499903877   -0.089613319145580378      1.7289243115631312
    96   4      7.7327587466532819     0.14742292674600116      3.7982379364589001
    97   2      10.138298983906269      1.9939764820811343      5.8617449262786456
    98   3      10.078428760995497      1.8774355147936344      4.0032782058973266
    99   3      8.1667171237954026      2.0506369328548248      6.2654738750484871
   100   3      10.093315429686445    0.033400413974062543      6.3515293495041716
   101   4      8.2971820079904788     0.15677270896950099      7.8729775848847439
   102   1      10.196917627305231      2.0454869520369443      10.092870233231736
   103   3      10.173734335035791      2.2494562745480469        8.09573947189085
   104   3      8.1300509845214375      2.1221007326875112      10.119268323553039
   105   3      9.9658462314236242   -0.016284178286819252      9.9992022628827879
   106   4      8.0566172654194048      3.6125526020430283    0.012808143378562762
   107   2      10.129512097613247      5.8816544130595476      1.9908523841964287
   108   3      10.186617417483156      6.0899343234551271    0.017665662491393019
   109   3      8.1587178542856797      6.0314522607167067       2.026710426424744
   110   3      10.357846125696907      4.0221349210663071      2.1156682462310914
   111   4      7.8042027884806942      3.6852141747936651      3.6362551971029933
   112   1      10.140696488675836      5.9970618762262493      5.9765682783284797
   113   3      10.122579218975487      6.3390620604780032       3.958761865898309
   114   3       8.088984093947289      6.0258193887161031      6.2247869927732609
   115   3      10.232170066025407      3.9752378987869763      6.0632450118211567
   116   4       8.378540579244433      3.8611228193876905      7.8256191255696201
   117   2      10.172921682941812      6.0810880710445074      9.9671934447622217
   118   3      10.265461532887782      5.9508750585039012      8.0893406877354455
   119   3      8.1916369296976885      6.0140088123012205      10.174470423450972
   120   3      10.253978248591919      4.1009662834870664      10.428501570394472
   121   4       8.281083427205953      7.7901741408039777    0.072610388589389077
   122   1      10.038220271937215      10.126487469620393       1.993237112878359
   123   3      10.109955105578344      10.452950858559715   -0.081480574135822922
   124   3      8.0017033905217314      10.400062707539892      1.9693899439840166
   125   3      9.9490804481043469      8.1168959544271573      1.7632486551265121
   126   4      8.2294549454248553      7.7852308003877857      3.8137552389826026
   127   2      10.107757197676845      10.010124736767962      6.0296510492298951
   128   3       10.04910459698201      10.163308960328546      4.0690932790407519
   129   3      8.1306364454936837       10.32796827873856      6.1179218850559343
   130   3      9.9668356908790265      8.1088660634559897      6.2163036732578494
   131   4      8.0435291629392154      7.8603021075853352      7.8073502510124566
   132   1      10.126696900704232      10.102981341061595      10.093007062622471
   133   3      10.078935706806005      10.417544780093682      8.0634227913132523
   134   3      8.0603691666858133      10.296377862168717      10.149581420468317
   135   3      10.131064525435592      8.0551075005198278      10.192139396415502
   136   4     0.23244773372963948    -0.16498072296769278      12.150986645177206
   137   2      2.1479047374281293      2.0141102635558985      14.161254674383343
   138   3      1.7698653708997627       2.014061194744059      12.198556063783666
   139   3    -0.14736715256653604      2.0547015399583932      14.450531245790019
   140   3       1.819496260473153    0.075980794500176238      14.245510362876544
   141   4     0.13724356388598988    -0.15680918624263634      15.918842412607503
   142   2      2.0253826995910451      1.8998522849958583      18.243728763269559
   143   3       1.984861297622684      2.1061455750802778      16.212493228803989
   144   3   -0.054962402957871984      2.2256934348038513      18.066685578765195
   145   3      1.8106765050595546   -0.022122908764221592       18.16828929489369
   146   4    -0.23076222557990314    0.055016539751716866      20.401109504835862
   147   2      2.1005509365679247      2.0806744334140999      22.352095619416261
   148   3      1.7465069904192057      1.9545373143260474      20.199665703167501
   149   3  -0.0031513998734895928      2.1868500581999828      22.342706977220107
   150   3      1.7613399403429115   -0.023369742559091824      22.325058609644586
   151   4      0.2659504150093131      4.0736513138326282       12.10173399141136
   152   1      2.0043618459770407      6.0203957017702958      14.159176798931739
   153   3      1.7719691865602112       6.100498028056327      12.114082312603276
   154   3    -0.11731362732571982      6.1961428307571147      14.292429460658953
   155   3      1.7680952067776055      3.9769634826648388      14.160412771278418
   156   4     0.14587158934948105      3.8921576165937317      16.002565761835434
   157   2       2.058691484194568      5.9230431924644433      18.229045471442721
   158   3      1.9139989957147678      6.1770195265381069      16.282633577009644
   159   3   -0.033221534658302625      6.1647727714592193      18.367728031070204
   160   3      2.0190576886713436      4.0349810859575799      18.264033382971235
   161   4   -0.047976045037455381      3.6984509778211034      20.415245581273584
   162   1      2.0305883530842705      5.9659090750318846      22.257312314001648
   163   3      1.9974684750168779      6.2875427451241039      20.206191779947424
   164   3    -0.06644897403787052      6.1546578971007566       22.29144854693779
   165   3      2.0988702494497122       3.967592189651163      22.128298733477404
   166   4     0.24637258012936442      7.9511921169833073      12.028080489085008
   167   2      2.0689777965816067      10.128927569882567       14.05146498125991
   168   3      1.9136361618880342      10.139143483265572      12.165325984993169
   169   3   -0.031086750724903973      10.199184123911746      14.373847455062654
   170   3      1.8840850712621926      8.1817813633750411      14.252265507204847
   171   4      0.1585019126413319      7.8671906170042121      15.953448429822096
   172   2      2.0127581426324146      10.040717585869045      18.179155182148659
   173   3      2.0048851027167025      10.251002217013035       16.28970857995855
   174   3    0.013453748939340506      10.366027009167336      18.346358317690363
   175   3      1.8800209567158335      8.1778386882054406      18.253995747411619
   176   4     0.11168404707149797      7.7418418491544676      20.273299825214114
   177   2      2.0602483842288581      10.019410758359028      22.290986169584308
   178   3      1.9338854975012829      10.239089028114613      20.307974723787162
   179   3    0.018272081904179449      10.383610678381309      22.392448276569631
   180   3      1.8943252715286409      8.1505269213384413      22.382676231451335
   181   4      4.4130406678115977    0.066794795795184561      11.998198672433029
   182   1      6.1427429896996131      2.0272650641367993      14.162589500479942
   183   3      5.9755169075058738      1.9558774722049777      12.126646136468342
   184   3      3.9997839919583775      2.0229128056632448      14.098807752088595
   185   3      6.0567001361416049   -0.023446375142401211      14.346594461170374
   186   4      4.4615882822163018   -0.014074112824033688      16.207469667707915
   187   2      6.2387419089916758      2.0277309003899191      18.213370489339621
   188   3      5.8308430538751841      2.0656556796279788      16.246888238137164
   189   3      3.9100719124186081      1.9193103468460389      18.306199302868457
   190   3      5.9568752039150556    0.054294113078681989      18.154946893875419
   191   4      4.4802941022210678   -0.023922677613128492      20.245629659920475
   192   1      6.1394805048780698      1.9980958700047846      22.211914082245432
   193   3      6.0049174026362415      1.9786878752892216      20.183735697562749
   194   3      3.9838413524383451      1.8150578223586096       22.17911528333336
   195   3      6.0141926127008825   -0.055922135474410085       22.31060383357212
   196   4       4.461595372673604      4.0957761897958234       12.23827640652288
   197   2      6.2606882562306883       6.061103889802534      14.232696328952276
   198   3      6.0562138811094135        6.09094301117445      12.221916462935855
   199   3       4.018841033758588      6.1936613582593383      14.110530425180622
   200   3      5.9678454820704783      4.0815966728733528      14.172255621146993
   201   4      4.4091250053219451      3.9985595841984116      16.175016654884647
   202   1      6.0866471125612795      6.0108381640359259      18.221978007653693
   203   3      5.8516199891582534      6.0049465018486421      16.179246171700981
   204   3      3.9462790928572788      6.2357904283240488      18.252204385480955
   205   3      5.7867192186664402      3.9700596690394168      18.239250982152541
   206   4      4.3793263008184589      3.9624514983199375      20.286425205805685
   207   2      6.2039140879034242      6.0419418061585741      22.219029179681119
   208   3      5.9161305152651043      6.0769059958314005      20.260668813019294
   209   3      4.0367607312567371      6.2775662364919871      22.244513364221117
   210   3      5.8458822288800514      4.0593785479449949      22.194586433493317
   211   4      4.3273814418293028      7.8207471805504758       12.39249972546089
   212   1      6.0938542419687538       10.07262044751365       14.17614110666779
   213   3      5.9743305387944048      10.112285335912837      12.121225984864759
   214   3      3.9759446943089443      10.171401851588763      14.251684424977178
   215   3      5.9613103595771699      8.0408958773172134      14.246568684472841
   216   4      4.1220062213440203      7.7296842773500511       15.99733085538724
   217   2      6.0547425391206007      9.9675037241359519      18.214676283832695
   218   3      5.9549610926947558      10.365627527227632      16.286437086535937
   219   3      3.9771650372166274      10.192965810185902      18.343486591928801
   220   3      6.1068207847069402      8.1149152474016066      18.131867859121616
   221   4      4.0847676834604671      7.6774423749410152      20.315616454676913
   222   1      6.1005989852620957      10.056540730037169      22.258587072322786
   223   3      6.0370423967715716      10.253356890330014      20.193721530315898
   224   3      3.9907356522139414      10.175977088642314       22.29029330553514
   225   3      6.1033411691598021      8.0300556084664994      22.380236658308583
   226   4      8.3806138163582897   -0.056024929909462041      11.956178553682417
   227   2      10.176831585369399      2.0265630672172859      14.070007915520721
   228   3      10.092679530540593      1.7512995903780122      12.176545124733877
   229   3      8.1753277718183153      1.9716830858824388      14.441269153834956
   230   3      10.134298150910327    0.030389120173245493      14.496668892160374
   231   4      8.2279151518567062    0.017283126045699881      15.912100762086094
   232   1      10.163181834080032       1.999283135135844       18.22584455542848
   233   3      10.230096270026262      2.3679935207748346      16.203441048028854
   234   3      8.0962530598185225      2.1443159224045387      18.075617170944458
   235   3      10.030769950483839   -0.035785746915550247      18.042901242052082
   236   4      8.4308704256534526   -0.023642024102127741      20.339569388665822
   237   2      10.240997394344268      1.9238821480842836      22.341064602868514
   238   3      9.9169728295664861      1.8258632494577627      20.262752857283104
   239   3      8.1648164439787063       2.225194319851918      22.331184903632415
   240   3      10.036815758308059    0.014653550883585468      22.356813044147845
   241   4      8.4971585125118523      4.2953357887905259      12.056417382474276
   242   1      10.194694987116566      6.0687671769105762      14.204749631583995
   243   3      9.9705175633122121      6.2167743024966642      12.191466132217094
   244   3      8.1399810869766789      6.0851444783354465       14.35626617370542
   245   3      10.086537643910308      3.9954413136001956       14.01634656767523
   246   4       8.354488274980012      3.7960119808254946      16.052777965374183
   247   2      10.043468171422198      5.9584916402263106      18.240805910507465
   248   3      10.342448885737662        5.89222729502489      16.283285219903441
   249   3      8.1457316005786691      6.1098799856279271       18.10934431104651
   250   3      10.216209656510143      4.0929772009620908      18.550990093850398
   251   4      8.3806397694011245      3.7597416031589761      20.459323358455197
   252   1      10.153939521156992      5.9914086933775188      22.271204074793737
   253   3      10.121657057016201      6.4826236666515484      20.188655927181586
   254   3      8.1071877004237276      5.9890844069641798      22.200194680076223
   255   3      10.232672786734957      4.0022582315732453      21.884748917636664
   256   4      8.3785122927310915      7.9000179632457792      11.919492232278092
   257   2      9.9975611960463588      10.046607382549421      14.162754996727044
   258   3      10.113577268444987      9.9523594619777676       12.26215727339388
   259   3      8.1160819606807593      10.223607192678884       14.35203491000841
   260   3      10.155999202061361      8.1697801682864686      14.540641254813272
   261   4      8.2379057168912606       7.942684964571435      16.368054301352004
   262   1      10.085025157780537        10.1221133030975      18.210924492165979
   263   3      10.135644890918062       10.51901982839442      16.206473307672315
   264   3      7.9907790124400613      10.309830003571962      18.146621421737255
   265   3      10.064194059858179      8.0990551953706564      17.892363385534729
   266   4      8.3228275109090326      8.0022010880872774      20.353071399381346
   267   2      10.143208599639395      10.051931760931138      22.295868779398191
   268   3      9.8829968115499867      9.9783922066794482      20.262984008440586
   269   3      8.1147836402186968      10.392964682636828      22.311716635915591
   270   3      9.9434890913686207       8.151204313387602      22.422467119829012
   271   4     0.11723636588365156      11.890205114844962    0.033391497767499022
   272   2      2.0906528679373428      14.092475171667617      2.0266739747737188
   273   3      2.0045045760383111      14.244413915441541    0.086345859617311116
   274   3    0.074433106460958312      14.228490224780778      2.1868712969268342
   275   3      2.1259171678061555      12.215347050836304      2.2033588742217352
   276   4     0.27302537234746765      11.894783706535401      3.9887367465053276
   277   1      2.0590211927168567      14.107092783015586      6.0571011142545128
   278   3       2.063403927393169      14.433603625884011      4.0286015633052461
   279   3    -0.04971296357067518      14.217600792316594      6.1206343838872392
   280   3      1.9917975260839096      12.079765127300428      6.0362967736443736
   281   4     0.37087783537118085      12.059999605595033      7.9668209497226226
   282   2       2.172718156868831      14.163059392589018      10.096385734880972
   283   3      1.9048106830635971      14.178769555306523      8.1345387175615027
   284   3   -0.048708718384201106      14.128715437204864      10.235469882082713
   285   3      2.0160984943330766      12.197937493003037      10.175262718544722
   286   4  -0.0046864423634081541      16.102105821570007   -0.096126871111479009
   287   2       2.024066879690277      18.217157072731251       2.001589642682053
   288   3      2.0327398621536226      18.435375325086536     0.11860175239837997
   289   3    0.054352020582942986      18.444085764353417      2.1474253610770724
   290   3      1.9390318385810803      16.312046274823544      2.0528573273148942
   291   4     0.12984535847088141      15.940082973833887      4.0369928512108739
   292   2      2.1052325986645348      18.192664911269169      6.0895939231178771
   293   3       1.957342521889972      18.288009288876289      4.1263055944706757
   294   3   -0.035619282695412605      18.453429431548887      6.1911650649369889
   295   3       1.897824105843825       16.27918017579999      6.1914366259521953
   296   4     0.26775350406809145       15.97240376714044      7.9744819631068538
   297   1      2.0563431709154183      18.196888323435434      10.054073074601622
   298   3      1.9248496860835966      18.395131342658452       8.061638267380804
   299   3   -0.062873927568298321      18.518062092803682       10.14832153836838
   300   3      1.8360478502137159      16.170699732946613      10.112067441644477
   301   4   -0.032690176811121699      20.266557517020111    -0.21797384365835318
   302   2      2.0378145881415248      22.334681723320568      1.8969506420913764
   303   3      2.0340350046601072      22.253214725075487    0.025913700715293371
   304   3    0.056903822022842866      22.191130666451759      2.2000550692527572
   305   3      2.0976095121877325      20.320410426019702      2.2939455351537461
   306   4  -0.0036509206002182538      20.256991305991527      3.7746610494864603
   307   2      2.0903900664445989      22.298467824463973       6.068288947178341
   308   3      1.9095401013090316        22.4053717690282      4.1824543882781819
   309   3   -0.048492916683639149      22.350733182240152      6.2475402085521194
   310   3      2.0626073793130093      20.367224577360645      6.1511636007739643
   311   4     0.16325771575968565       19.95061914195227      8.0952990129304787
   312   2      2.1363914128667343      22.256592246030191      10.163776701229397
   313   3      1.9261367183637037      22.385140788875756      8.1825427025319293
   314   3   -0.071277441293892504      22.292141468577224      10.169671851032653
   315   3      2.0449737731034872      20.333362352907439      10.275502998315922
   316   4      4.1355603771460316      11.806499280909115    -0.10393863026874271
   317   2      6.1027124403990491      14.125230397525305      1.9596060696333359
   318   3      5.9829681956126342      14.142963824996862    0.052070016059875456
   319   3      4.0545140376399091      14.408224197793469      2.1251979104853183
   320   3      5.8874416624289339      12.254029603556967      2.2023578911954393
   321   4      4.1532091916465212      11.759465957693717      3.9546692800634045
   322   2      6.0750266489318179      14.014779214879772      6.0989292609874397
   323   3      6.0376593781013383      14.460751796728539      4.0490653308446456
   324   3      4.0955460010283993      14.471927017108213      6.0358577512713918
   325   3      5.9308954132597105      12.148845228688078      5.9695564645678143
   326   4      4.3223445023396589      11.874676162995621      8.3080588016786638
   327   1      6.1248113353676077      14.188998788401436      10.089890785363101
   328   3      5.9959691503167374      14.213766947919135      8.0435607141553316
   329   3      4.0556037592274734      14.320830387219484      10.113490435118326
   330   3      5.9769617935875905      12.159533359915587      10.259277151661321
   331   4      4.1565850053285303      16.255716069257343    -0.27009332464267349
   332   2      6.0481464240807128      18.196534641881865      2.0439181687032071
   333   3      6.0068268984022861       18.49482084970824    0.079640907414270046
   334   3      4.0349464260942769      18.286545049530986      2.1915864569424257
   335   3      6.1754988827217447       16.25702577831111      1.9350034999327177
   336   4      3.9818738643417664      15.924903081716852      4.1355613192120879
   337   1      6.0489745713566521      18.295005462861116      6.0387314488009833
   338   3      6.2709445584672272       18.13252228747734      4.0221591427938348
   339   3      4.0013268043524173      18.194372410611972      6.1400181836631207
   340   3      6.2369790920714916      16.243770769869197      6.2040933165782892
   341   4      4.2609571373030288      16.044900326156707      7.8298129066720907
   342   2      6.1074661124623981      18.254075043761596      9.9760641051841112
   343   3      5.9982820554975307      18.405323560058257      8.1093429496255265
   344   3      4.0933960982240327      18.224862337342199       10.33714148617538
   345   3      6.0756114781082093      16.279948008662473       10.15640971935029
   346   4      4.2888949188449441      20.237945096225513    -0.23226413875784566
   347   1       6.035040933741243      22.240433159496035      1.9797163322946063
   348   3      5.9173627869940306      22.179556307529626   -0.062050973450030307
   349   3      3.9727020669816508      22.347744019536268      2.2730130872574463
   350   3      5.9356915605378662      20.249233849449592      2.3387867420793409
   351   4      4.0898409626426195       20.36234268877023      3.8177683437590249
   352   2      6.2074536918273493      22.294398463971081      6.0304575969745073
   353   3        6.14800755721717       22.47309283040445      4.1169236688444935
   354   3      4.0002447195648925      22.463203785527728      6.1615899217069376
   355   3      5.8389530998150496      20.345529329824448      5.9689493451533071
   356   4      4.3208472614502682      20.272646727146121      7.8818478580352238
   357   1      6.1090064749680755       22.28963463188391      10.105174921888361
   358   3      5.9540018357808355       22.07251483123482      8.0906008581576128
   359   3      4.0135117542744672      22.384696303694273       10.23731810119032