(written by ASE)

1080 atoms
4 atom types

0.0      24.299999999999997  xlo xhi
0.0      24.299999999999997  ylo yhi
0.0      24.299999999999997  zlo zhi

Atoms # atomic

     1   4   -0.028862997023687439    -0.21162051074887409    -0.19649099953917301
     2   2      1.9948846317580247      2.1001718085008689      1.9258987424693472
     3   3      2.1223909049701408      2.1404256772435213    0.038723809523523257
     4   3     0.10678700715198759      2.0078491560698994      2.1983568901902255
     5   3      2.1963230621114009      0.1045258891858417      2.1606720275171964
     6   4    -0.11076062951355242   -0.070703010012772294      3.8617344347501477
     7   2      1.9753693505247265      1.9439919195644852       6.074546131416227
     8   3      2.3032157377213998      2.0363861119247191      4.1229671410741915
     9   3    0.098501828015052736      1.9953301808016251      6.0414420374820672
    10   3      2.2915909583518723    0.054925661446901079      6.1442508393382269
    11   4    -0.40611673954087107    -0.15386165368822974      8.2746187617442324
    12   2       2.013499162130965      1.8951938050670003      10.134744647243579
    13   3      2.1506744594674156      2.1341259493647948      8.1127452830284259
    14   3    0.085343177979952847      2.0137380921379684      10.126022797609675
    15   3      2.2155158919294275    0.016167199312200477      10.031760101871424
    16   4    -0.27091941786807777      4.1559039553252513    0.089340408454079034
    17   1      2.0597716348965305      6.0389970770115715      2.0873012294529505
    18   3      2.0485924923629093      6.1183438457800783    -0.01371833128437654
    19   3    0.037794765956109491      6.1704941938764737      2.1526625994275901
    20   3      2.0332688921135014      4.0087737162220609      2.2159569317279679
    21   4    -0.10603909176551303       4.161031757468181      3.7311139568487754
    22   2      1.9281771760952409      6.0301690743385059      6.0274647109395927
    23   3      2.2273906145757123      6.1950705942134583      4.1434595818963524
    24   3    0.051824443070610113      6.2606469313850361      6.0554246741922197
    25   3      2.0563482214055289      4.1035913519043428      6.0651561785114652
    26   4    -0.37513751089323483      3.8878215140506227      8.2647366058042149
    27   2      2.0505747750804173      5.9508701842387524      10.119908200560175
    28   3      2.0974477852902793      6.2161437156657229       8.120104931391241
    29   3    0.078432907162932067      6.3370194180868067      10.111220046916003
    30   3      1.9346923089045238      4.0660507598117084      10.196307972353901
    31   4    -0.25493769447123155      7.8278823690885693     0.30054678280315672
    32   2      1.9952826867648301      10.011097640558027      2.0480795576627253
    33   3      2.0665199252796755      10.102049878583252   -0.048096835207192282
    34   3    0.075239913633896385      10.082119704107775      2.0853084381413241
    35   3      2.2227414347083729      8.1235380385264033      2.0051104965162905
    36   4    -0.29116448253973509      7.8496181251081936      3.7167856827458357
    37   1      1.9843585203720953      10.084856737046112      6.0938577772667184
    38   3      2.1547585919036338      10.167390300991274      4.0000559353025906
    39   3   -0.049444771076502324      10.191908919847382      5.9608275382794886
    40   3      2.3378253392304273       8.056312824802859      6.1301220390548599
    41   4    -0.20365042866842167       7.827128380830116      8.2364752093237534
    42   2      1.9926112429711667      10.116674487189552      10.043119592036712
    43   3      2.0857457465990206      10.165019070177518      8.1335671654755064
    44   3    0.011425578633538481      9.9987459547538471      10.132025341160011
    45   3      2.2759992131225655        8.15538165016285      10.068995722891993
    46   4      3.9417246773508774    -0.33026421890079555   -0.040355371655057246
    47   2      6.0287308797183599      1.9912740873935677      2.0913060015010023
    48   3      6.2685313767388831      2.0928998601063671   -0.038188695676342102
    49   3      4.1287447595841353         2.1546374112555      2.0126538010814246
    50   3      6.1145998229398133    0.095076521244826948      1.9397918473078355
    51   4      3.8900995272787431    -0.16638643951250462      3.8700563501080767
    52   1      6.0606844648373599      1.9804510821092867      6.0812129771941095
    53   3       6.082806090273813      2.1367696508745571      3.9947172122000909
    54   3      4.0635504077780924      2.2996846052171627      6.1520129606826721
    55   3       6.233062007692407   -0.074756605283689076      6.1164531200254295
    56   4      3.8350220360670115    -0.24005217561195261       8.106148821934827
    57   1      6.0363274342252202      1.9643485624336747      10.157834696965896
    58   3      6.1931559281719668      2.0713146772854585      8.1245655741192326
    59   3      4.0262407799599096      2.2556153795520726      10.112764483001962
    60   3      6.1892869062800964   -0.048443215236602742      10.127819595048379
    61   4      3.8914891312843478      4.2853948922189096    -0.16448760226259651
    62   2      5.9823090232524923      6.0771726449045387       2.101726667629729
    63   3       6.336614940963174      6.0740064673519223    0.028462956578151573
    64   3       4.117324506955149       6.021953094128544      1.8343317823816709
    65   3      6.2771395561702352      4.0775137989052519      1.9041079325864807
    66   4      3.9654105320891069      3.8147833185864184        4.24414294175536
    67   2      6.0293668157097082      6.0456735323936623      6.2045357947240802
    68   3      6.0902607298329796      6.0775186628134303      4.0262318186980046
    69   3      4.1227887592803407      6.0193386994186584      6.1536882534774247
    70   3       6.290910274012921      4.1152921955581672      6.0694891677164478
    71   4      4.2029336401699098      3.6177856859771285      8.0803023078423823
    72   1      6.0763726695914873      6.0285188954032192      10.118222175470862
    73   3      6.2541250372782846      6.1062171354552959      8.0819252993704609
    74   3      4.0233191066285103      6.0154762805677668      10.266791273147565
    75   3      6.2270388005690354      4.0373297135224906      10.265777333410016
    76   4      3.8305732972547686      7.8615669041533058    0.037960616499448457
    77   1      6.0296378510455551      10.067552505036938      2.0147265185014755
    78   3      6.2856081676865996      10.173602627960021   -0.076393879156546621
    79   3      4.0186776984678136       10.33049563050926      1.9248662775447083
    80   3      6.1412137241327738      8.0293325479499558      1.9413116439082254
    81   4      3.8239878717809583      8.1240161530008628      4.2769184577311714
    82   1      6.0550780583774895      10.053025774689328      6.0831341170735023
    83   3      6.1013056768122969        10.2628393211755      4.0275108699852913
    84   3      4.0453732649611691       10.28464280178336      6.1015546320289369
    85   3      6.0982155583192332      8.0394079319711391      5.9744412704074863
    86   4      3.8020400291789462      8.0782040032420177      7.9709224669661936
    87   1      5.9624288827281271      10.084738965115667       10.18898422819899
    88   3      6.1347149599773028      10.196831414866891      8.1206076626573296
    89   3      3.9786461133994195      10.374174365640092      10.152182170370503
    90   3      6.0656879863325113      8.0788722968952769      10.233438530122443
    91   4      7.8566334071388129    -0.22072285864796523     0.14645610876923887
    92   2      10.094603370076642      1.9278058095642105      2.0742253617737925
    93   3      10.146143875115332      2.0436029232327901   -0.034333021567861825
    94   3      8.1510723625854222      2.0367963871872963      2.0123146165652641
    95   3      10.265753015820117    0.017243092064494186       2.010010135656755
    96   4      8.0953269087199011     0.15056386407541425      4.4636637559418002
    97   1      10.131505002512828      2.0045623482058037      6.1423080974524362
    98   3       10.20386873127028      2.1779174237422811      3.9651717061635883
    99   3      8.1265433422662667       1.985417761584533      5.8870325405667669
   100   3      10.180898653314403    -0.08368043027107476      5.8061610784881292
   101   4        7.67443642406805     0.13862328762851148      8.1173720005454335
   102   2      10.116430463987117      1.9034753007435319      10.018963183942056
   103   3      10.051698779273535      2.0065880254857218      8.1523721478220903
   104   3      8.1653462047998815      2.0304173537096419      10.251660117584777
   105   3      10.314581378927086   -0.008709146816311476       10.18224970163832
   106   4      7.8136226528549484      4.1022443410132619    0.046849510215596496
   107   2      10.108206127657573      6.0185647338722861      2.1531356550988514
   108   3      10.115314894302099       6.305363230142131   -0.077066892297783796
   109   3      8.1909242241669187      6.2286301766803733      1.9934319310109663
   110   3      10.125978649357572      4.1160795049519141      1.8596140170019266
   111   4      8.0461351779711805      3.7791291154507038      4.4062608754505366
   112   2      10.042567976963843      6.0124088224795056      6.2130852192521093
   113   3      10.273015420964292      6.1158025937411225      4.0139751145490692
   114   3      8.1441946473561035      6.2293188262173533      5.8959488128854947
   115   3      10.055841036847626        4.14387900525597      6.0308122321352942
   116   4      7.7730867435441242      3.7649137514487134      8.2432850904555917
   117   2      10.057962298704947      6.0284535303692941      10.288505745856071
   118   3      10.082583553359964      6.2668185570012307      8.0838357116290496
   119   3      8.1610237346824022      6.2707362046502757      10.206732871332212
   120   3      10.067552769377519      4.0799538911018365      10.073242673305471
   121   4      7.8135799826274104      7.9264385470845875     0.16389779021875828
   122   2      10.022891024819765      10.123990286905711      2.0929020498873987
   123   3      10.133658448762807      10.172309281389289   -0.067509277501717105
   124   3      8.1502341165071428      10.127729797320562      2.0288497071763381
   125   3      10.314190315303353      8.1582923458930097      1.9312213033653445
   126   4      7.7753710867704928      8.1653365609575399      4.2754966730568125
   127   2      10.101845569388871      10.089833554025269      6.2740759781136681
   128   3      10.283503830907835      10.184968350000657      3.9811441353843815
   129   3      8.1630000084731407      10.108216971373121      5.8524776743554368
   130   3       10.20971202357959      8.1267708485378645      5.8751997061643904
   131   4      7.6406232413665292      8.2251190901721198      8.4045236821707512
   132   1      10.114141556459627      10.077086618302873      10.154552869519609
   133   3      9.9804851242210368      10.037392856186063      8.1229138842131121
   134   3      8.0784181430978936      10.081716340989086      10.248328699034913
   135   3      10.381567110925841      8.0524622073357559      10.212998816432373
   136   4    -0.26531645510038043     -0.1936473125461497      11.759165599964836
   137   2      1.9010661143398115       2.104534358913456      14.234492632039405
   138   3      2.1477524275562332      1.9334952842220923      12.113584905307514
   139   3     0.01200895209317002      2.0371549244209466       14.16607012065959
   140   3      2.1757109510050481    0.011956975028600497      14.146815452898311
   141   4      0.2429113682988312   -0.014280810917432177      16.561843598233693
   142   1      2.0057011894171644      2.0389592062049018      18.230760516160732
   143   3      2.1075305138780793      2.0369176278336809      16.137375024906898
   144   3   -0.044857416357817544        1.93666489245983      18.218202865244479
   145   3      2.0944951858228626    0.030801926880575987      18.133973381166804
   146   4     0.19071024813489942    -0.31897722456973704      20.175012875010307
   147   2      1.9371230240366051      1.9912990594641715      22.188284723644294
   148   3       2.121461483353785      2.0689656356516699      20.318359156754756
   149   3    0.047146951236320893      2.0490186082423949       22.38083930229066
   150   3      2.1464702403218201     0.11800836833697591      22.403491236025445
   151   4     -0.2987741411562439      3.8568888454658063      11.936060078803909
   152   1       2.037913882379109      6.0114084779861452       14.07720552674763
   153   3       2.001180898224781       6.321971961854679      12.064084113966265
   154   3   -0.026044164864102423      6.0782367531596986      14.058508874512137
   155   3      2.1328819046227587      3.9758663840024395      14.132155639668774
   156   4     0.16951896367305649       4.541496094054688      16.333710148328528
   157   1       2.018827136130823      6.1065914097602985      18.237665426344634
   158   3      2.0968364041184002      5.9650797235206605      16.189061168466228
   159   3   0.0038284293107859559      6.0071460022794065      18.341646517408037
   160   3      2.0449382195295085       4.048958688851692      18.317701354183374
   161   4    0.020926929537061132      4.1536289276334921      19.812426749671062
   162   2      1.9367469281751457      6.0964202383740753      22.292653319308126
   163   3       2.244690177931322      6.1059543284445832      20.321110363879836
   164   3    0.028753709945184627      6.1544057107690788      22.207664581135262
   165   3      2.1056187665445529      4.0926569760511642      22.321182204977525
   166   4  -0.0044616475887572478      7.6962903891141892      12.189877275756455
   167   2      1.9326627322734689      10.012356650647334       14.07039108892393
   168   3      2.0593376360044595       10.06703864361379      12.183708911582071
   169   3    0.051169423405439098       10.18104639135187      14.245251752948208
   170   3      2.0965339426113987      8.1480288495575799      14.307584248726535
   171   4    -0.54104527113899703       8.195291325053331       16.22568155287281
   172   2      1.9553040315870125      10.015921677398335      18.158596399852115
   173   3      2.0070513129033212       10.21523938252999      16.251231200278845
   174   3    0.074657566323251018      10.070212072810975      18.395045235724517
   175   3       2.208577310585738      8.1282777375704942      18.307755279968578
   176   4    -0.26312720584266236      7.9029274631859376       19.85174877088232
   177   2        1.89414029764987      10.173007858634531      22.299326549740321
   178   3      2.3123188869827547      10.078354632019183      20.282393613055369
   179   3    0.028968557203611068      9.9930280909000846      22.127138343720105
   180   3      2.2789291476725788      8.1064973535357172      22.249153059918726
   181   4      3.7319376390497654   -0.075386009739120158      12.279629723226282
   182   2       5.964660522388102      1.9515064724749591      14.276266636516171
   183   3       6.208131829741534      2.0807621258239246      12.243228208230654
   184   3      4.1052107621133347      1.9751512160082487      14.115250518640817
   185   3      6.2063214239999107    0.017607449321225828      14.062395837029827
   186   4      3.7827917975591023    -0.20919534034041565      16.518915329458892
   187   2      5.9651440380610827      2.0411145418287484      18.294495294791417
   188   3      6.2068062063857052      2.0071460771438203      16.208354453644645
   189   3      4.1137025241725622      2.0958450001731537      18.237749044422731
   190   3      6.2403292692865531     0.11412350266657222      18.230916947560811
   191   4       3.767297581248505    -0.33338608776091655         19.993341527502
   192   2      5.9649623082012804      2.0196128088017606      22.329749066853129
   193   3      6.2393024439441449       2.123205077339223      20.244654863116004
   194   3      4.0987664374800392      2.1645021316386486      22.360873481301315
   195   3       6.191036950854242     0.09223293118308909      22.231681867655926
   196   4      4.2770889906367016      3.9054964744443814      11.807477384134611
   197   2      6.0833670714481043      5.9339660946755091      14.148330903308397
   198   3      6.0891422861118532      6.1528225338914009      12.246209592508928
   199   3       4.127489981558587      6.1459108154392128      14.269549291270408
   200   3      6.1428562905987798      4.0116791467259336      14.200992473078836
   201   4      3.6416548574861691      4.1807207362003247      16.305841176170006
   202   2      6.0078868984067366      6.1943837810774873      18.269878361680856
   203   3      6.0895962457194504       6.106348222270225      16.245574762238171
   204   3      4.1015433994553625      5.9152077998189236      18.230327818245932
   205   3      6.3007191932607709      4.0208709641782683       18.19113737955999
   206   4      3.6754389690971725      4.1472509910280824       20.04933138211786
   207   1      6.0307156127689394      6.0534380188654318      22.301486088595528
   208   3      6.2175991790211835      5.9844934607027414      20.222765803013946
   209   3      4.0412126355327613      6.0309764501540677      22.503496567271384
   210   3       6.343106845705373      4.0027737539823116      22.284624308868711
   211   4      4.0772179110087814      7.8268935597588287      11.859162229482136
   212   2      5.8952448998900699      9.9846529477324548       14.23274027282385
   213   3      6.1037003241285275      10.162712128547794      12.286367741591327
   214   3       4.012146788740881      10.218593604871048      14.315583812747976
   215   3      6.0570406286126923        8.11815682341431      14.300130850408385
   216   4      3.7164557313876387      7.7253411406318442      16.040941154178274
   217   1      6.0374125874249094       10.07781508477618      18.246058587526107
   218   3       6.098393615680874      10.338524360525177      16.174924584556045
   219   3      4.0034524521173882      10.389018523648916      18.225837972786273
   220   3      6.0336318943789564      8.0740662801386343      18.384881076974725
   221   4      3.7712268651320699      8.0293396086095221      20.257987154318325
   222   2      5.9937523736474336      10.050060965501173      22.305638290320339
   223   3      6.0510892368733353       10.34719124113847      20.304935159901497
   224   3      4.1059562914690559      10.247868196173203      22.329340479664765
   225   3      6.1478766594701435      8.1518304808306326      22.150413637037044
   226   4      7.8194752670816818     0.11587492941983688      12.147676824386176
   227   2      10.067353026159312      2.0857577816839821      14.310666748410165
   228   3      10.211697333118975      2.1040526001531501      12.141065192432569
   229   3      8.1522362827428445      1.9681558546851563      14.144682617824964
   230   3      10.240355070695221   -0.014350076492918121      14.000797290232299
   231   4      7.9196159050155597    -0.09628625185310645      16.492111419055625
   232   2      10.096863884644963      2.0322528617913553      18.373880667021574
   233   3      10.286001611609201      1.9087985860482104      16.194722591898262
   234   3      8.2000172115166094      2.0306816534815439      18.115145472607772
   235   3      10.310563171311584    0.082292694578028833      18.227830756490224
   236   4      7.8486431417861038    -0.19917045452661147      20.301686418374462
   237   2      10.063959536277483      1.9017844389982401      22.373373657182409
   238   3      10.194798756780145      2.1853162268664499      20.245654110324807
   239   3      8.1909691543823424      2.0265820677627215      22.166547915731432
   240   3      10.260146765895172    0.047066133015757024      22.138915501340207
   241   4      7.8802222335025087      3.8044603050477885      11.924036277848248
   242   1      10.051102456011504      6.0366001373846414      14.158747100898481
   243   3       10.28706656608415      6.0985578078531191         12.162304889285
   244   3      8.0361109964749406      6.1858749273646856      14.354281858524205
   245   3      10.238597449235719       3.992938634553715      14.262624108418079
   246   4      8.0725780937702183      4.1844599391269846      16.521812374726981
   247   1      10.076220487434023      6.0958535957327991      18.257499412914456
   248   3      10.206392923355068      6.2062353194018103      16.203283830801759
   249   3       8.074815618146717      6.1115301234143482      18.086076580924587
   250   3      10.144939526959933      4.0204576512833734      18.033373542482511
   251   4      7.8096346077892305      4.1269646275070242      20.415887687480847
   252   2      10.054757081580316      5.9594961300645215      22.318511108065564
   253   3      10.335416566918747      6.0916484522689469      20.287902570603809
   254   3      8.1795107770282609      6.2334814163244889      22.113073673931883
   255   3      10.106614092224843      4.0830501641928354      22.282588170916771
   256   4       7.767039100202803      8.1153921688323507      11.856705381476948
   257   2      9.9517707783120901      10.127988064930323      14.218754578629577
   258   3      10.313824749821471      10.138905774640588      12.259086812986167
   259   3      8.0770053176717038      10.177310109919317      14.233753883210214
   260   3      10.272748234785221      8.1884881390702731      14.206533385045089
   261   4      8.1828285402313394      7.6826274363639051      16.172611299139188
   262   2      10.020085022670658      10.146838470222146      18.315907057407887
   263   3       10.26019532279131       10.15388816706384        16.2140792781165
   264   3      8.1448919630120304      10.158039831291187      18.199284543905573
   265   3      10.314573795082529      8.2047734785557491      18.260890216149214
   266   4       7.834432591996908      7.9328248594329169      20.375177257790863
   267   2      10.099842808060565      9.9952128642237241       22.30205425789217
   268   3       10.27262467462142       10.24061703765188      20.213749887573265
   269   3      8.1706083475057216       10.09725014012759       22.09472743080099
   270   3      10.294545748012261      8.1325826163294526      22.101086388386172
   271   4    -0.31518037895903039      12.092373805322474   -0.048699282293240928
   272   2      1.9429804294376154      14.117497201649147       2.035133697773436
   273   3      1.8727975534584296      14.276730892252868     0.05587958112618558
   274   3    0.020947835293306426      14.312167700436627      2.1634672933738055
   275   3      2.0167544340426873      12.163099707571313      1.9225647008290609
   276   4     0.13263479493788774      11.879484856945007      4.2488095545011628
   277   2      2.0846361237273601      14.112354304541009      6.1730350342686933
   278   3       2.198339098890663      14.186978690626313       3.996508617242212
   279   3    0.031742363244804943      14.328908616661108      5.8570703399253938
   280   3      1.8784182769130577      12.211348039399358      5.9804351114154182
   281   4    -0.20156615761048574      12.080690583215061      8.1789863500008853
   282   1       2.028546218264256      14.138319504787265       10.11878094380257
   283   3      1.9004448638278808      14.253216518531545       8.053913856412267
   284   3    0.016645386661279325      14.366818863807453      10.254373239274408
   285   3      1.8370127385827919      12.109383052143546      10.303138336169797
   286   4    0.016435653256780154      15.769838670942987    -0.20632034195113708
   287   1      1.9763582096425427      18.153397114840132      2.0011916429575933
   288   3      1.8455190364568992      18.302889864634551   -0.043791223125994448
   289   3   -0.058550068713421374      18.405463459914461      2.0360970222315395
   290   3      2.2672665574869364      16.139746802457815      2.0667222639476526
   291   4     0.13367090522750391      16.177513849720029      4.3350471783091509
   292   1      1.9876502616604887      18.171288193807516      6.1095478151255049
   293   3      2.1627637186640474      18.283997019565021      4.0311908514194821
   294   3   -0.050708794104348844      18.172536621322617      5.7780642935288329
   295   3       2.066536121549901      16.144823042128554      5.8502425999513328
   296   4   -0.090233037462155094       15.85483531333705       8.359756184459421
   297   2      1.9986574591172637      18.185348164517617      10.006809189229134
   298   3      2.0204628045108661      18.380554493139201      8.1299677667348131
   299   3    0.043534917469399921       18.16814859452063      10.212662851693343
   300   3      2.1488734361001187      16.266954958358983      10.166452690308859
   301   4    0.036361983224429892      19.940329370753616     0.12246918330059461
   302   2        2.04996829719581      22.187441959018891      1.9794686122075094
   303   3      1.9994596281925985      22.462418500638805    0.068133696264021743
   304   3    0.073215097761001213      22.458233280920538      2.1230855995001083
   305   3      2.0185530220512549      20.310753506923604      2.0418386363451906
   306   4     0.18794994165130707      19.811993464976215      4.0801373512994719
   307   2      1.9346706981890054      22.155903463810276       6.092696854356209
   308   3      2.1877420380984338      22.455461877388494      4.0824629660280589
   309   3    0.061859125805069456      22.445480527216876      5.9925303565131429
   310   3      2.0006655900858492      20.295141610300895      6.0187724386279644
   311   4    -0.20781546882299584      20.377418681388903       8.314404211232473
   312   1      2.0271742410666138      22.250376638957345      10.098675749155806
   313   3      2.1208958529683515      22.353484244197801      8.0156090030632736
   314   3    0.018333127323965626      22.307821323289033      10.172507940616562
   315   3      1.9314633742468621      20.228824544619663      10.326215708450853
   316   4      4.0245681321193487      12.047724225264046     0.33243192572383595
   317   2      6.0930629712709417      14.166924387389226      2.1635529706886416
   318   3      6.2701440720619548      14.173062566667225   -0.065659522288806324
   319   3      4.0792836683704534      14.106054175627667      1.7644011886207831
   320   3      6.1336436398361842      12.216142962446158      1.8148247276623908
   321   4      4.1296267403114175       11.68649928679439      4.1959526391705726
   322   2      6.1232385996783485      14.093869396672346      6.1729590205536455
   323   3      5.9508457755513549      14.219916488329842      4.0565708667015903
   324   3      4.0640522150185392      14.145098926367721      6.1597413377698444
   325   3      6.1827382707434868      12.198395412975893      6.0702988916989851
   326   4      4.1646112234602626       11.67531919024208      7.9497238215127668
   327   1      6.1200500737002175      14.161090824019649      10.177965023331938
   328   3      6.1538081982084067      14.269052563867669      8.0852590839939769
   329   3      4.0414496021026727      14.201240805874448      10.200043430801294
   330   3      6.2119974661067161      12.160925676797078      10.263746576765417
   331   4       3.973162495028737      16.250540252554988     0.40321733343222926
   332   1      6.0942125027682845       18.14338829244754      2.0922450835174686
   333   3      6.2461873532974534      18.280043274126406   -0.014696978442013829
   334   3      4.0546223047410654      18.303991853124746      1.8866123890734259
   335   3      5.9768350758167141      16.129906007509781      1.8038170288927744
   336   4      3.6636620564734312      16.265352702486215      4.0864217274357051
   337   2       5.989129990114904      18.117900733937322      6.0913257046231157
   338   3      6.0316612856884699      18.422681179487434      4.1218143107968608
   339   3      4.0997583923099299      18.410590905098346      6.1676156227761361
   340   3      6.0197987760972902      16.231422040305272      6.0681294149216249
   341   4      4.1800973074125585      15.865731594901753       8.480887438786878
   342   1      6.0365138117772101      18.249881144156443       10.16328649316158
   343   3      6.2005361596464725      18.375982998641611      8.0447595017811562
   344   3      4.0026145389547967      18.484588678786771      10.088069912757996
   345   3      5.9503204412146689      16.242424933873263      10.024016043652031
   346   4       4.374830181941757       19.88465013877882     0.28345889642864736
   347   1      6.0636185558906579       22.29249136350743      2.0298766673799795
   348   3      6.1897155420047731      22.447491336123903   -0.097992762237637643
   349   3      4.0183056453975965      22.422102301156912      1.9678218934794898
   350   3       6.202198746015033      20.265396417541162      1.9273425838102554
   351   4      3.9114887581237725      19.806234123360046      3.8537304133377446
   352   2      5.9889554632113224      22.251866198755316       5.977331976437771
   353   3       6.071379607072438      22.222433765566979      4.0847126248208001
   354   3      4.0968162643641319      22.298040587382992      6.1785399925115545
   355   3      6.2672347140511437      20.296891919562647      6.1473342790825667
   356   4      3.9520360447965968      19.943242524475277      8.0859120687977821
   357   2      5.9873541134096584      22.278877317784001      10.181018377331704
   358   3      6.2628935498530609      22.301876271413143      8.1207317969218238
   359   3      4.1108194970457488      22.222165886944818      10.065155281481603