(written by ASE)

1080 atoms
4 atom types

0.0      24.299999999999997  xlo xhi
0.0      24.299999999999997  ylo yhi
0.0      24.299999999999997  zlo zhi

Atoms # atomic

     1   4    -0.11384225301299232    -0.10565400090482524    -0.30923877724972543
     2   2      2.0287999784051043      2.0806302246092514      1.9080317409278769
     3   3      2.1858940118284762      2.0266019533692896    0.037214457042302876
     4   3     0.10477215876630845      2.0277138130950516      2.1853854649803064
     5   3      2.1493301552294235    0.085228641385739337      2.2113973348705125
     6   4    -0.06634533920523511   -0.071384641055361395      3.8314554516946027
     7   2      1.9970263904360308      1.9102981650129858      6.0677631290695393
     8   3      2.1942089615982887      2.0724198000023279      4.1375571646743614
     9   3     0.10557092785592133      1.9783802143389311      6.1563018291499558
    10   3       2.279143762721572    0.027086606681645697      6.1639366976863945
    11   4    -0.40823047786810907    -0.15373623141158776      8.3128862510584778
    12   2      2.0162495895860029       1.897881759799958      10.129314366997436
    13   3      2.1965641422974076      2.0981648059864755      8.1397366423050084
    14   3    0.083490805069879728      1.9396817982761621      10.100389119913787
    15   3      2.2669532593397062   0.0038979073257710477      10.068226095645882
    16   4    -0.13336695924579592      4.0541252556472154    -0.26222608266796199
    17   1      2.0404941164332326      6.0424387807974709      2.0404639368197444
    18   3       2.139456315769956      6.0506380451801132   -0.039060174719723173
    19   3    0.010967111120911907      6.0555806855698675      2.2441975611508931
    20   3       2.015219577612807      3.9925410615046024      2.1447522814067153
    21   4    0.075049480332341531      4.0784615093777576      3.7537067446114936
    22   2       2.037232196803493      5.9964866584640113       6.027003499192511
    23   3      1.9992553530689618      6.1472806802891595      4.1241325681172469
    24   3    0.082492565809592813       6.296936423831343      6.1214608754278501
    25   3      2.0131708058057987       4.080640716348837      6.1157032277036913
    26   4    -0.34062813711796425      3.8358591178395556       8.270916426113704
    27   2      2.0811930471250983      5.9377262820719965      10.128514035789534
    28   3      2.0782428474166958      6.1831260543415549      8.1329826292151974
    29   3    0.060765748402867539      6.3061572976301941      10.098604050125154
    30   3      1.8884429473054984      4.0218794933591244      10.221288158116426
    31   4    -0.29567326496000357      8.2383672675933646    0.078456836328291354
    32   2      2.0010600945622028      10.063246315658963      2.1192915391518361
    33   3      1.9894797440864445      10.100333444601567   -0.059803144217938711
    34   3    0.076986000900100673      10.188294875448072      2.1011823569401207
    35   3      2.1136720282144323      8.1504328861080513      1.9859336870097104
    36   4    0.054944560735721508      7.7632759352895366      3.8891877956739318
    37   1       2.009135786662327      10.074039973965437      6.0957503017371666
    38   3      2.1530176245350234      10.220393864864478      4.0210357004551689
    39   3   -0.036140522096248379      10.222658734987331       6.087074284976639
    40   3      2.3288024105793479      8.0546147049372117      6.1336446152417397
    41   4   -0.059366036463831144      7.7534741983792497      8.1911172091165128
    42   1      2.0221880302191644      10.060081658144631      10.160299315440401
    43   3      2.1066714314744477       10.19465371182104       8.136860160323975
    44   3    -0.03830139149811089      10.093247399697869      10.134002649810759
    45   3      2.2908197908515571       8.051598204114601       10.10143788953347
    46   4      3.9064575220310052    -0.28691743259045838    -0.18817829636212993
    47   2      6.0402917945848831       1.952775370803705      2.0623058114535113
    48   3      6.1681994140353416      2.1179901757430102   -0.025178519780162976
    49   3      4.1159918750363893      2.1423424184248332      2.1259026385128643
    50   3      6.0848228493175656    0.081806684331986193      2.0601089390942535
    51   4      3.9181667004674301    -0.22763155957833489      3.8510674169487684
    52   1      6.0647156439407892      1.9733618602575367      6.0769602330477888
    53   3      6.1751445262063402      2.1788070296910611      3.9864880962894564
    54   3      4.0579447652039713      2.2940781251849995      6.1076112049680757
    55   3      6.2285211399838953    -0.07115920460627273      6.0456099737450355
    56   4      3.8981118926086782    -0.22901185011867667      8.2483618039069899
    57   1      6.0641679725816564      1.9274492636169722      10.186789983584049
    58   3      6.1480526239844133      2.0988241149242164      8.1020363754104743
    59   3      4.0393234255511903      2.2488330097997435      10.142822867106046
    60   3      6.0567046535870261   -0.081053662955368727      9.9477831103408363
    61   4      3.8954825213136073      4.3457994652867269    -0.13913449146031798
    62   2      5.9566435158775723      6.0721105212126059      2.1151956511600059
    63   3      6.2143884035824684      6.0554123130015833 -4.1944046391183867e-05
    64   3      4.0836204959706057      6.0337465837816717       1.920456299065801
    65   3      6.2671454189426274      4.0987019557931097      1.9306605872081519
    66   4      4.0709014194366873      3.8053705854257331      4.2736731601638125
    67   2      6.0837445700432804      6.0689225569967951      6.2695863299633983
    68   3      6.1671983387719411       6.065303488795502      4.0078567657718205
    69   3      4.1023584647357501       5.972392997982646      5.9992906185247579
    70   3      6.2445440344881176      4.1143514507357715      5.9988636862562288
    71   4      4.2274049162450975      3.5992417146428237      8.0980740893368974
    72   1      6.0495267537072825      6.0494520776552791      10.159658907679995
    73   3      6.1480064721653811      6.0876932311402676      8.1330370068342237
    74   3       4.017671936963823      5.9028930231797547      10.344882128041545
    75   3      6.2821677479611608      4.0354131431780722      10.220556988528925
    76   4      3.9763105296831887       8.132265410874135     0.36800043677967781
    77   1      6.0670620315382058      10.079580734309355       2.042101638239719
    78   3      6.2682333819108642      10.142674032475705   -0.091328566911521317
    79   3      4.0251938800659843      10.188677464468585       1.780421198581813
    80   3      6.0250748444318534      8.0472541376387419      1.8504911528197439
    81   4      4.1032449679289877      8.2571501885551299      4.4846590409610654
    82   1      6.1025707392385682      10.064925545887997      6.1566013385806091
    83   3      6.0211115562524755       10.29943878832113       4.033779184820192
    84   3      4.0744437266687434      10.274514582800679      6.0709020495757251
    85   3      5.9822081870641677      8.0496187669978596      5.9288803134631278
    86   4      3.6463895435149394      8.2168959484307411      8.1378656579276036
    87   2      6.1083440602232866      9.9633098818084509      10.150596635080301
    88   3      6.0879041071707967      10.267835517406501      8.1919698645247365
    89   3      4.0944796471833449      10.385769377184582      10.164059845943985
    90   3       5.861790139753646      8.0934799194210338       10.27213135005959
    91   4      8.0226111906356348    -0.33289343849813335   -0.065386874407813586
    92   2      10.062952867128597      1.9583805447110201        2.08658156313111
    93   3       10.22479540036578      2.0473270432403328   -0.027164346877293959
    94   3      8.1365174479556082      2.0543393529030669      1.9506246228599495
    95   3       10.28268315449011    0.070501223871287474      2.0170693692462818
    96   4      7.9030867330098644   -0.067100111866536388      4.2888199413215027
    97   2      10.065485966838855      2.1127963873094426      6.2077127276913275
    98   3       10.16536752747478      2.1667817940763854      3.9828931240688719
    99   3      8.1742201903708871      1.9274515572490052      5.9252582318052323
   100   3      10.250394411369435   0.0079673345569435186      5.8310951941727849
   101   4      7.6684737514716588    0.097499480819041959      8.1983098418650471
   102   2      10.108811777998703      1.8923900385247621      10.200398002791466
   103   3      10.216121847814163      1.9604127008411771      8.0837501092125823
   104   3       8.171865463665851      1.9707283531059927      10.060181445336259
   105   3      10.314257668616488    0.005652423749885188      10.133500405056946
   106   4      7.7679375191636471      4.1602623640276741    0.043008959154614258
   107   2      10.085937096456796      6.0507449038645618      2.1545243356992727
   108   3      10.171007113614072      6.2924151537723612    -0.10852206776319867
   109   3      8.1451568423422653      6.2486084297929008      1.8949153622793935
   110   3      10.078028880115861      4.1298742372535333      1.8328314893245576
   111   4      7.9393031344735725      3.9662427621867935      4.3392102000272388
   112   1      10.091586284633268       6.009954413837769       6.130388630225573
   113   3      10.113147525261018      6.0706830165716701      4.0051011391981239
   114   3      8.0513108957535682      6.2780874368068424      6.0285576271129999
   115   3      10.025782764996702      3.9841832232065655      6.0513312282170846
   116   4      7.7212127241701598       3.812694766077235      8.3787129618946299
   117   2      10.092823245181476      5.9623613804706102      10.175435027969375
   118   3      10.060737031698086      6.3477518997917537      8.1492656180030671
   119   3      8.1381014608563991      6.3609726402791722      10.143361403914477
   120   3      9.9798152649950627      4.0484857257111004      10.010156556741839
   121   4      7.7951359897065835      7.9506636778259177     0.18618914835995085
   122   2      10.024422167364291      10.159918453184353      2.0680673687175526
   123   3      10.130740720725273      10.122553695832604   -0.094299475670468008
   124   3      8.1410717098240966      10.067547794395514       1.982480589628542
   125   3      10.295431031927585      8.1254348693274174      1.9323848031252664
   126   4      8.0415437314347553      8.0435298858934239      4.4323758149155204
   127   2      10.123235151075971      10.107392889469386       6.264043242313444
   128   3       10.24436591996928      10.158773362084865      3.9681621933920743
   129   3      8.1420972598535784      10.079703348903584       5.862778478419024
   130   3       10.15727790285232      8.1519626789994426      5.8767743251621196
   131   4      8.2144826095688099       7.839111994861641       8.270190766445765
   132   1      10.083678453405074      10.082404703963414      10.153354059845187
   133   3      10.005885466610893      10.030667233892798      8.1178044200082482
   134   3      8.0428815735822567      9.9701564490757768      10.149324925259597
   135   3      10.388468719363944      8.0764612450405409      10.169643967472709
   136   4     -0.3772064123244056  -0.0010386703207200985      11.889211002636562
   137   2      1.8838131527284183      2.1323503781800026      14.199984126389632
   138   3      2.1396725665037226      1.9117705967430263      12.138060945922389
   139   3    0.013126800452005845       1.943520104920949      14.168287958776707
   140   3      2.2262771567946178   -0.017581932332721682      14.139458580695281
   141   4    0.053461425343970435    0.059069569200283049       16.56249810510619
   142   1      1.9982785267319474      2.0402832028353592      18.230100455080606
   143   3      2.1385580094548571      1.9395153596529411      16.113330708645332
   144   3   -0.050424375944738788      1.8647562873500261      18.094976172234208
   145   3      2.1642569421057072     0.02158720436162315      18.153189940764705
   146   4     0.18306123784748918    -0.34926515896014421      20.213148436718626
   147   2      1.9217838484942531      2.0451407692316539      22.151532926714751
   148   3      2.0392296218954331      2.0896888606822714      20.279213735781543
   149   3    0.052445270939356428      1.9793676975504109       22.46692214536202
   150   3      2.2315942915311759     0.11662470505820868      22.325411344601875
   151   4    -0.32333436738946419      3.8534750402570359      11.969287794056548
   152   1      1.9871961637290472      6.0082426924379728      14.118705386798027
   153   3      1.9375659539476904       6.286333718097727      12.095071599293657
   154   3   -0.054077065341167241      6.1289520217085194      14.095130246473921
   155   3      2.0497624137752939      3.9875082963994126      14.161455395387705
   156   4     0.13914302967612599      4.4568025167018028      16.477978954051803
   157   1      2.0174109011972221      6.1387735069216918      18.224103378888888
   158   3      2.1536797693333347      6.0336096706649807      16.186238741250826
   159   3   -0.007973959160228198      6.0623609666956471      18.285161487715037
   160   3      1.8961878389168036      4.0447876838138352      18.141617595376587
   161   4     0.21716994511396062      4.3256734200359803      19.891479553799503
   162   2      1.9970310403977281      6.2391320187835149         22.331444617536
   163   3      2.0594955457559925      5.9172649503391526      20.311564851212701
   164   3    0.040792084367621738      6.1152680559850667      22.329878879992812
   165   3      1.9675864722833065      4.0358843218506886      22.397093130885622
   166   4    0.010263973672737937      7.7071732541828135      12.058281728223532
   167   2      1.9103948782893179      10.013758553533775      14.076200514511067
   168   3      2.1100312848132536      10.165660430256027      12.199060331518671
   169   3    0.024526076034105022      10.150004561395296      14.180400497319885
   170   3      2.1341586018117229      8.1432048676119191      14.250403896327608
   171   4    -0.56260425017453841      8.1878360252063906      16.304114720188945
   172   2      1.9594640221443329      10.072804164483767      18.133949968051919
   173   3      1.9916175633253619      10.186326100853181      16.218491352836637
   174   3     0.06667457038187187      10.019628276712556      18.351722364454538
   175   3         2.2491279771024      8.1618657539759418      18.298184621378368
   176   4    -0.28011625627655801       8.041389588183609       19.86364505538705
   177   2      1.9273079460950553      10.250432085428121      22.296473506869255
   178   3      2.2977062037973943      10.125110117311616      20.261325515789917
   179   3    0.057709985705948347      9.9649345376373759      22.150540836826686
   180   3      2.2593560361870351      8.1166081176072815      22.177652656418864
   181   4      3.7970441210634593   -0.092271042532604111      12.293490439896221
   182   2      5.9769310455171363      1.9616616057842222      14.280733799713529
   183   3      6.1458106522553537       2.192718942658221      12.258083195839593
   184   3      4.1029992215538034      2.0233963181921411       14.13585738400862
   185   3      6.1721860639788408     0.05221656944214817      14.107675483295667
   186   4      3.6713850350937074  -0.0073336893270847065      16.410528639740971
   187   2      5.9676371849928112      1.9993860564468091      18.288861256898549
   188   3      6.2137960185013439      2.0505859130519042      16.214226371714219
   189   3      4.1197522545834957      2.1747150610229431      18.204225455987533
   190   3      6.1231315994084996    0.088175349748448845      18.221723345883838
   191   4      3.6500952937791462    -0.20384694282708266      20.125208204469907
   192   2      5.9510570857219109      2.0267437865698339      22.321290446599271
   193   3      6.2391865645046369      2.1657602498120747      20.228378532338947
   194   3      4.0848101441840559      2.2438264488052058      22.283165966642091
   195   3       6.063685440477883     0.11055037688496007      22.228150234291508
   196   4      4.2537072275642336       3.857651554008521       11.84947685362155
   197   2      6.0093842612139445      5.9644943287878638      14.158889328832981
   198   3      6.2346703228193325      6.0412304363239251      12.236685684750464
   199   3      4.1023250441631012        6.11276800133128       14.16504277408678
   200   3      6.2274006346703814       4.058655598523961      14.276308735422274
   201   4      3.6069851083634172      4.1584814464516207      16.410402532028954
   202   2      6.0087780700936593      6.1763361884453127      18.252152943608703
   203   3      6.0609032304535795      6.1963877085564345      16.216791039490683
   204   3      4.0878235654775121      5.8802418881328533      18.299879737225837
   205   3       6.332335684695118      4.0419674974542978      18.150087854739134
   206   4      3.8398941763442989      4.3194510717995938      20.271949693992532
   207   1      6.0182583707504032      6.0732881611671345      22.279921362091201
   208   3      6.2038338744302024      5.9265692530736569      20.207169838806035
   209   3      4.0031224077580054      5.8166957580379925      22.229137298459385
   210   3       6.359140657844832      4.0109682954736421      22.262357932696286
   211   4      3.8481899232767498      7.8640691004633974      11.956141235791078
   212   2      5.9065648290453128      10.037505569743736       14.27358113387114
   213   3      6.0085528531923593      10.295430290722702      12.192302788740999
   214   3      4.0078276936628416      10.282682927902608      14.239140508747491
   215   3      5.9990034558928356       8.128510767758085      14.107922100363991
   216   4      3.6877414380330436      7.7626766632208408      16.048789747711673
   217   1      6.0556776373461654      10.076435085797435       18.20440899652338
   218   3      6.0749587926466786      10.159155833802073      16.167436605136633
   219   3      3.9992037420593554      10.398076819047095      18.223876134826096
   220   3        5.94843070992634      8.0679164331453421      18.473015295460073
   221   4      3.8394370625438725      8.1906954060322654      20.136755612063634
   222   2       5.978891821493554      10.051829729395486      22.292502839163149
   223   3      5.9895218015300404      10.372881985217745      20.289692876406722
   224   3      4.0798250545141146      10.241476003733061      22.343866735246706
   225   3      6.0938083924649655      8.1566952375694335      22.074183922664179
   226   4      8.1726082309310062   -0.081072772858282793      12.542078830327181
   227   2      10.113218594964781      2.1250543942467006      14.348499096164099
   228   3      10.140266638008248      2.1329094011960805      12.103101547629745
   229   3      8.1603620955916494      1.9782927838621913        14.1293303552208
   230   3      10.164581394057235    0.076500149678505103      13.980864409427985
   231   4      8.1758473864405179    -0.21845447108263291      16.317110538656113
   232   2      10.074453247062651       2.054863862082994      18.368170320551616
   233   3      10.274976128969515      1.9311491799413483      16.222863259954853
   234   3      8.1921290409043852      2.0167246972911888      18.114172887578885
   235   3      10.353387929885345     0.11934520485600277      18.266411477484436
   236   4      8.1325585237892213    -0.27369254188263736      20.415988168370582
   237   2      10.041514645911342      1.9994050287227785      22.364577969436567
   238   3      10.185195635652315      2.1849179023853758       20.26229466920768
   239   3      8.1606012349815931      1.9850317570711469      22.233192811479508
   240   3      10.305355104624901     0.11864296476114342      22.217762286141248
   241   4      7.8165152685975894      3.8369620649846907      12.026783262198881
   242   1      10.086426413235198      6.0380423326371044      14.144522149154891
   243   3      10.110847549781548      6.2105893434179107      12.116520706530645
   244   3      8.0547721333991671      6.3316697670157556      14.274316549767534
   245   3      10.182324358687257        4.02045083109636      14.251967113525533
   246   4      8.0352991142612744       4.117857193697942      16.487886851997096
   247   1      10.055988373756037      6.1192972858075825       18.23951627474624
   248   3      10.226929871303431      6.2485741124474261      16.194716562524569
   249   3      8.0492562634484806      6.1892208477162383      18.066814568305432
   250   3      10.117900317201144      4.0438411503602421       18.04592074686898
   251   4      7.7937808958534172      4.1329432464340234      20.378761876925271
   252   2      10.018782627429909       6.002792474887964      22.288372854828442
   253   3      10.265380978851558      6.0840761205821456      20.270522252244945
   254   3      8.1480843063196922      6.2488842883650335      22.147822097500374
   255   3       10.10157868836095      4.1000081513301208      22.281826458910089
   256   4      8.0073671624975855      7.7475649103523851       12.18703212303949
   257   2      9.9417837142247762      10.142000190375207      14.154008718014593
   258   3      10.333437295141922      10.134846146445907      12.242240909397379
   259   3      8.0748048485210475      10.035789875593171      14.142153128889341
   260   3      10.340615724415738      8.1995658128297784      14.198604363565073
   261   4      8.1948997289792676      7.7162974612300275       16.14083247830148
   262   2      9.9763426532097093      10.144103126586254      18.271966351868926
   263   3      10.258018159161226      10.097195605990223      16.222474638408031
   264   3      8.1252373507227666      10.058150947566245      18.334207890577009
   265   3       10.34884790725369      8.2096655532565581      18.273035920486947
   266   4      7.8258273271444683      7.9555570291928825      20.311158429339645
   267   2       10.05800977384976      9.9954756896589601      22.285734171830015
   268   3      10.323577359427926      10.268223856205397      20.203933776500346
   269   3      8.1449013546902957      10.078874456533335       22.05576036564565
   270   3      10.268996588521009      8.1304526334899094      22.068529886381711
   271   4     -0.3078834225823821       12.07339671337191    0.048717749986669306
   272   2      1.9586026930274705      14.166678323785925      1.9535945538098476
   273   3      1.8575769425229527      14.274634763726993    0.051322331087012354
   274   3    0.070273014024308036      14.279092691036448       2.209881647789246
   275   3      2.1158224916538724      12.178474160177318      1.9359091255287928
   276   4     -0.1290245803557109      11.809275966938202      4.0795985803004964
   277   2      2.0138104804546493      14.106729086106959      5.9821478007009299
   278   3      2.2392395090087045      14.209604011047103      4.0765368903146584
   279   3    0.084571416033549951      14.415977166954345      5.9932489900625008
   280   3      1.9516050999361347      12.232989091525889      6.1908545224060516
   281   4     0.17370839713196801      11.684697182972283      8.0833367679489374
   282   2       2.049091992840812      14.087238027830995      10.082446731663348
   283   3      2.0380856080302125      14.350513160682153      8.1484390674199361
   284   3    0.080246206739029893        14.4633657537139      10.197868096957578
   285   3      1.8722522469379121      12.216561000899381      10.240475105863846
   286   4   -0.050729289505949945      15.822094428250121    -0.23782195537456216
   287   1      1.9720280895370985      18.172092707807927      2.0243899834818806
   288   3      1.8838965092466449      18.303623466564911   -0.016776344831123002
   289   3   -0.043944082925093421      18.422960643294331      2.0533178491392232
   290   3      2.2772799343030923      16.139284835521654      2.1008960624457815
   291   4   -0.066088072772689452      16.260633493532623      4.3317086323293381
   292   1      1.9800198498767008      18.241408703884687      6.1337333783491648
   293   3      2.1898392432477851      18.273805682462406      4.0601765226397442
   294   3   -0.037079044629167106      18.179523205374906      5.8016910321772768
   295   3      2.2618319414034587      16.194723971011157      6.0705057684436916
   296   4    -0.22742270927731487      15.994617080828725      8.2740971881390486
   297   2      1.9356402760241849      18.199374867912631      10.126182451740215
   298   3        2.18579292368752      18.220025678088952       8.195887145652792
   299   3    0.052544476457555674      18.200656579778027      10.159804391825952
   300   3      2.2124456888364707      16.277729613845331      10.212273655532053
   301   4  -0.0054739277787238865      19.988083666323025     0.13015046992388174
   302   2      2.0486349672757025      22.205744588755117      1.9403543900606708
   303   3      2.0506177717678904       22.44612969066759    0.041321454780395166
   304   3    0.079390003565713754      22.424165351167279      2.1406944049715686
   305   3      2.0488879403513232      20.320819624122485      2.0724101849134851
   306   4     0.15682688643992332      19.854023267727896      4.1027845666604215
   307   2      1.9241949387486479      22.179409074318883       6.087539213820059
   308   3      2.1522773412163136      22.427802861915836      4.1060277533982052
   309   3    0.056277032631313229      22.438080301747416      6.0747206667070524
   310   3      2.0042303194366209      20.301172919259987      6.0489755276947372
   311   4     -0.1999006692650355      20.506713273943809      8.3803397127111925
   312   1      2.0270811691066468      22.263330621252535      10.144028538469589
   313   3      2.1979749554205918      22.296759556280485      8.0399345710950971
   314   3    0.021148802756596974      22.216079644993467      10.125582670549523
   315   3      2.1291511048723475       20.21189429413139      10.152516194168262
   316   4      4.0661661006842813      12.073524051615918     0.33525500613215609
   317   2      6.0853768163157849      14.172244714459147        2.18920984528831
   318   3      6.2985549965448531      14.195074342614372   -0.069142855202503628
   319   3      4.0932755012835731      14.124401862366314      1.7804753326924843
   320   3      6.0940964705031888      12.214449770846741      1.7941579268636829
   321   4       4.206603377873237      11.746354552576516      4.2777497636371846
   322   2      6.0627252669267158       14.10812504431245      6.2290832077602891
   323   3       5.970495035124638      14.236796506084024      4.0737177060705028
   324   3      4.0847395387137482      14.168257645997196      6.2564635559426627
   325   3      6.2289046453783401      12.216845832056038      6.0408000373040611
   326   4      3.9462207827804359      11.676515532591393      8.0237774097490373
   327   1      6.0533106036536974      14.161842148101234       10.12999817100529
   328   3      6.2773689324185069      14.202217928668283      8.1107129466299135
   329   3      3.9849157253441065       14.14356725787316      10.302553850669264
   330   3      6.3100428114689047      12.142683053986161      10.226158962996642
   331   4      4.0571170740512104        16.3470675361921     0.40869775745896736
   332   1      6.1207887863512482      18.158285176027881      2.1134783808873148
   333   3      6.1875488778341756      18.269246292515881   -0.019615198225594842
   334   3      4.0653944725211275      18.287880287904475       1.915579763792185
   335   3      5.9970364789361721        16.1375157685885      1.8158529661438132
   336   4      3.6802951607249121      16.381417365582308      4.0764481885571682
   337   2      5.9956013123934611      18.164913792306191      6.1088712237272862
   338   3      6.0693434408587246      18.402362308139949      4.1406997288348659
   339   3      4.1223772077446341      18.385153266980023      6.1728612830667133
   340   3      6.0127974462818061      16.261972220823942      6.1242599553907793
   341   4      3.7393831534081299       16.22844187903247      7.9382974893569189
   342   2      6.0304842083123562      18.163696560246713      10.211851314063711
   343   3      6.2394581469299775      18.383893922326784      8.1058189189485521
   344   3      4.1433491388276789      18.438986269815803      10.119550965829783
   345   3       6.022960476257837      16.299683389082563       10.09111307253416
   346   4      4.3791840591185824      19.896694592961765     0.31221134964017233
   347   1      6.0471585036863766      22.295244297792497      2.0270079007646991
   348   3      6.1506430787978266      22.428314044521777   -0.066917569440646155
   349   3      4.0125792546774983      22.415605412619829      2.0473983610254485
   350   3       6.198682540087737      20.266589156126717      1.9149896375015854
   351   4      3.8883214083026529      19.860273732354951      3.8779667327851883
   352   2      5.9709452075006988      22.256220742589182      6.0409698361119295
   353   3      6.1818960551829294      22.256027313521429      4.0884965060505474
   354   3      4.0963302820129277      22.260364925464785      6.1006201674649247
   355   3      6.3608774739732397      20.292804899039506      6.1028290351695578
   356   4       3.753476205394259      20.223116707786485      8.2728181997000085
   357   2      6.0673361408664848      22.275403450882614      10.267206087533156
   358   3      6.2783564432464187      22.261334461503175      8.0380325881247146
   359   3      4.1662587001531959      22.193641389166945      10.013058549238199