(written by ASE)

1080 atoms
4 atom types

0.0      24.299999999999997  xlo xhi
0.0      24.299999999999997  ylo yhi
0.0      24.299999999999997  zlo zhi

Atoms # atomic

     1   4   -0.079451699812611923    -0.33900964180136806   -0.074936946899340426
     2   2      1.9721695728052435      2.0013820713304429      1.9259876645496976
     3   3      2.0816185104939691      2.0770823039345885    0.032731871481883883
     4   3    0.093940729738991452      2.2250015056399346      2.0815306790267991
     5   3      2.0332928736949447     0.12457462407984965      2.1844539115141322
     6   4    -0.26200461230017064    -0.28987165779244162      3.8633492270368062
     7   2      1.9600539466949394      1.9122053252209219      5.9939669336084993
     8   3      2.0655266374259043      2.3137412133108586      4.0567813540262128
     9   3    0.040138870962813523      2.2542376536416615      6.0740955820244702
    10   3      2.0429940946854979    0.035601942334298586      5.9659490253466627
    11   4   -0.043683115829986026    -0.12142496589233638      8.6683926390910102
    12   1       2.008542428904935      2.0606713058784671      10.088671821118016
    13   3      2.0935978050671489      2.1103715472327638      7.9900165631540494
    14   3  -0.0019011965890214986      2.1974036555988761      9.9929586875517789
    15   3      2.0713449250425651  -0.0029726182036185302      10.043511613066807
    16   4    -0.28888192799128642      4.1356506009325713   -0.098719318639793913
    17   2      1.9450488751128212      6.0608320301272975      1.9496162156749217
    18   3      2.0947724543454758      6.3264919606424179    0.078747835025086838
    19   3     0.08033868417362855      6.0703898839527906      2.1438684402031352
    20   3      2.1859619865150752      4.1660177030619918      2.0338051823166197
    21   4    -0.25145479669139481      3.9386988672725756      3.8724356882081912
    22   2      1.8966912521256654      6.0907218606397207      6.0153792476654724
    23   3      2.1479839609529106      6.1096542746766067      4.1086466766467264
    24   3    0.010112169913270594      6.1061186694855376      6.1825887240169752
    25   3      2.1335474608902549      4.1795062775311749      6.2191270091778081
    26   4   -0.010367262897355281      3.6583960116968233       8.191681319423413
    27   2      2.0610556903320814      6.0157852242032295      9.9959298302215895
    28   3      2.1088945089360234      6.2923893210595478      8.1040161439015392
    29   3    0.010763644228371168      6.0861440034338452      10.141829364346817
    30   3      2.0957624688842578      4.1336231294696635       9.934950403209081
    31   4    -0.45961913254358511      8.2319765785851793 -0.00072945031208467384
    32   2      1.9015519476443674       10.16357348480763      1.8864685733665449
    33   3      2.1078200511310494      9.9982801280222304    0.021735882552467615
    34   3    0.047890057917933326      10.177149000617048      2.0840504841996643
    35   3      2.0636442197351701       8.153716287306958      2.3004361603706331
    36   4    -0.37976353978446437      8.1324203032732374      3.7060160793201629
    37   2      2.0084822487820837      10.155043122578945      5.9645631756219499
    38   3      2.1082246971561771       10.23359301180656      4.0760278259819902
    39   3    0.045578686609100562      10.120935550906024      6.2660986915504511
    40   3       2.000241131090053      8.1193372551166654      6.0483154030689157
    41   4    -0.18052641868211344      8.2172183898173277        7.88717382029595
    42   2        1.93264087660001      10.066408778738424      10.093546614362428
    43   3      2.1388771050628805       10.00180977929454      8.1786265175388362
    44   3    0.046504542835216253      10.255690340307668      10.165862380825729
    45   3      1.9752081038004314      8.1477802503681307      10.360984058463396
    46   4      4.0426854539185557    -0.33093545462125096   -0.064929810021303824
    47   2       5.975238836104289      1.9392892284286045      2.0188234938541867
    48   3      6.1149152712195951      2.0862306116267644    0.078907459644586175
    49   3      4.0530803939099549      2.1321951768985969      2.1482961655644894
    50   3      6.1151782098079712    0.082398941736732165      2.1087510025640976
    51   4      4.0173778412920589    -0.31940447033360259      3.8800847882734208
    52   1      5.9942936330256282      1.9696924533439755      6.0534890330145359
    53   3      6.1029789753556862      2.2532402041500164      3.9924324200714687
    54   3      3.9811058579990872      2.2338835108987496      6.0322584413181151
    55   3      6.3143578007582235    -0.05240232668287053      6.0667334714112382
    56   4      3.6486173089819838   -0.078041092143215307      8.2555756206537279
    57   2      5.9585471050002869      2.1130721580404743      10.143206079447207
    58   3      6.2470192018550534      2.0052841660545329      8.1282026379293306
    59   3       4.084727498729519      1.8783357213318055       10.03393775384359
    60   3      6.3174316592761857   -0.010127888123524154      10.114111228373391
    61   4      4.1717220610996035      4.0432232776998429    -0.42586526835357741
    62   2      5.9949240088355547      6.0652615860105401      2.0785442793960285
    63   3      6.1551075598566367      6.2961568438209765     0.12018908823422021
    64   3      4.1062396894623348      6.3318082139249467      2.1435189732322417
    65   3      6.0821947255629132      4.1566336650675861      1.9388026549060717
    66   4      4.0197241630220706      3.7850990480455637      4.1335978467069951
    67   2      5.9456826515356536      6.1059437974533228      6.1548177426764212
    68   3      6.2140969119724563      6.1024252098705762       4.064500010035732
    69   3      4.0626050759619101      6.1531522925854398      6.0953251025517288
    70   3      6.1834129746613282      4.1273068737175045      6.1202899279916512
    71   4      3.8563649823328916      3.7716510534831578      7.9437710896011238
    72   1      6.0719852292110374      6.0401784345274576       10.05977559037764
    73   3      6.2143079804471792      6.1726287465412009      8.0451908511060815
    74   3      3.9788038536299304      6.1828029445528925      10.310186041893578
    75   3      6.0273554862329135      4.0025106092136244       10.11546805956989
    76   4      3.9657984026422888      7.9701637943668215    -0.29180435189862469
    77   2      5.9682338174765173        10.1317123530592      2.0547296523381071
    78   3      6.2269605867096898      9.9849159478181786    0.053180612118434147
    79   3      4.1018815387546903      9.9629179636249479      2.1273496702671766
    80   3      6.3519323588274643      8.1443831744786959      2.1432080070453856
    81   4      3.8089323483105941      8.1159369561591124      3.9698364061586147
    82   1      5.9992495894157738      10.137531581922442      6.0681401068011258
    83   3      6.2855029082466984      10.183203944901797      3.9987443728368777
    84   3      3.9822782218446733      9.9864741803240378      6.1936985975017986
    85   3      6.2353213487523496      8.0627555345884492      6.0025938901882609
    86   4      4.1659652863315602      8.4930599127717663      8.0282656995853383
    87   1       6.033663735512909      10.137196929284244      10.109157446334811
    88   3       6.151743164746696      9.9644795930137136      8.1024079618262252
    89   3      4.0263957745752794      10.027968244933545      10.287231985709477
    90   3      6.1774568928322671      8.0754984004517976      10.254397419672646
    91   4      7.7472852996493167    -0.19455590472176487   -0.081009022838129635
    92   2      9.9943041979845795      2.0391684393752452      2.0645922456454215
    93   3      10.300062255901878      2.0982188426041248   -0.027432662822751436
    94   3      8.1039273026346006      2.1803223991988219      2.0117957477667918
    95   3      10.198990858445525     0.10012746853236976      1.9280956942528409
    96   4      8.0036871120337931     0.12209129344402384      4.4211273037312191
    97   1      10.147121226545968      2.0401970971792869      6.0708774406861288
    98   3      10.222205163916133      2.0896930414651349       3.941038009518028
    99   3      8.1112623095432443      2.1283672885524418      5.9788503005968714
   100   3      10.072839625063946   -0.037423902530004036      5.8412442215655158
   101   4      7.7701125780121716     0.13662654093583121      7.9897519503700325
   102   2      10.092380251248025      2.0542823556839696      9.9485649726523331
   103   3      10.134888217514909      2.0557670083394251      8.0916560138426306
   104   3        8.16017278573708      1.9877798981251922      10.141345864251214
   105   3      10.114432173451522   -0.030819471359287177       10.08004141312164
   106   4      7.7112565656038541      4.0037164441187896    -0.15421761297378153
   107   2      10.041562267078197      6.1461863011784947      2.0787080147661419
   108   3      10.268014705393913      6.0677105867011152   -0.026795297156256604
   109   3      8.1764113734154726      6.0578107230961757       2.011917248180616
   110   3      10.326230377729969      4.0683363051261257      1.9155886232421906
   111   4       7.903534564183464      3.8190294560013611      4.3271459014482554
   112   2      10.061696672107709      6.0644888932116015      6.1335519360373487
   113   3      10.292198186060693      6.0530107421553829      3.9982580641574539
   114   3      8.1753193628898764      6.0603407558890012      6.0111309821905445
   115   3      10.249128377947066      4.1070431489562882      5.9449214705115248
   116   4       7.863002368514862      3.7843805825355279      7.8453124974939517
   117   2      10.072464713205337      6.1542972305063106      10.151090507430627
   118   3      10.255861022890155      5.9902236476495627      8.0955485351260048
   119   3      8.1850203047916334      5.9573601211001037      10.187697343759153
   120   3      10.288916230548343      3.9598089930405593      10.201361614300776
   121   4      7.7810685246980968      8.0906430444807906    -0.02805828643796833
   122   2       10.12326958758144      10.181110066116416      2.1398451483487979
   123   3      10.212292520848115      9.9366559722615548   -0.042631114726638199
   124   3      8.1792800240468004      10.201751693998753      1.9533644531853944
   125   3      10.203943148115584      8.0684678741133062      1.9467167937860903
   126   4      7.8641318299020897      8.2609072575832414      4.3232562660966734
   127   1        10.1015993758785      10.073112923150493      6.0956008957062178
   128   3      10.189290007828429      10.098967071666687      4.0195370232645695
   129   3       8.113955310722698      10.210100755435402      6.0379151512351932
   130   3      10.282511262693216       8.014309702195753      6.0985321705734448
   131   4      7.6884932828146093      8.2154972962453989      8.2382737853907937
   132   1      10.124534719908253      10.104960509647798      10.157373590287541
   133   3      10.297535410658593      10.135317707642058      8.1382009881782977
   134   3       8.116698700979315      10.163541821819537      10.218342247511819
   135   3      10.219969639578483      8.0414990266905875      10.159047854279875
   136   4    -0.63555195812532683  -0.0055630462629186316      12.141156828436461
   137   2      2.0319971964970698       1.963798800003399      13.997674560225301
   138   3      2.0017470630707797      2.1133417280266089      12.134311317287834
   139   3    0.074239400382602863      2.1598881048687306       14.27410573507856
   140   3      1.9350403136543575    0.029089920481345934      14.149678345265656
   141   4    -0.19735169165576935   -0.082092717809727697      15.844060147061015
   142   2      2.0227334622669502      1.9585902116716571      18.107278302039827
   143   3      2.0209535201609299      2.0420953982488896      16.231065573912353
   144   3    0.047781752936213312      2.1462987896879815      18.372051120832005
   145   3       2.100119745497079    0.085660523160499713      18.374730413944029
   146   4     0.10728352586349521    -0.36280341502178898      20.297601200838546
   147   2      2.0318569538627314      1.9512907588070463      22.226745129450503
   148   3      2.0209056737235538      2.2876851280167565      20.306369749558559
   149   3    0.069899245116006134      2.1876644185794065      22.289848195079124
   150   3      2.0574782766170916     0.09075982019096554      22.227949549656632
   151   4    -0.20043205736958655      3.6177811826362496      11.907850328202622
   152   2      2.0159299553762589      5.9634741511542906      14.027192970302689
   153   3      1.9341226540056913      5.9993019448283134      12.161748910325185
   154   3    0.068077439542173754      6.0771174642032504       14.38439532871282
   155   3      2.0672788315746229      4.0639927285218969      14.331254352702807
   156   4    -0.13861255582270329      3.8833049254369798      15.895708372538412
   157   2      2.0291760490151791      6.0116530193429742      18.089742345595127
   158   3      2.0888792512335241      6.3171802736527658      16.221162029670101
   159   3    0.053371143145308823       6.278242183799561      18.268384517633571
   160   3      1.9844213243662734      4.1417525009690239      18.206014269973487
   161   4   -0.076328413794623323      3.8222753664873235      20.242277254613882
   162   2      2.0067144748584522      6.0575075178827875      22.149661040087633
   163   3         2.0543939712774      6.1208229788535462      20.261001621993927
   164   3    0.089715788594861817      6.1457163010722224      22.291226046966507
   165   3      2.0585145213099207      4.1656844351933442      22.484035347173606
   166   4     -0.3299633031269289      8.1362079934877904      12.122314114753664
   167   2      2.0008156775909156      10.009514241016763      14.109105809477008
   168   3      2.0865600777411712      10.325857616567335      12.186139181812504
   169   3    0.095126539049520717      10.266537137333948       14.17317856087282
   170   3      1.9625981387100215      8.1230022617376996      14.110048830389044
   171   4    -0.21616179433770957      7.9985437977049605      15.957354591739405
   172   2      2.0857004810565858      10.162707933827379      18.084071609249722
   173   3      2.0093722604315114      10.032845858917938      16.177285236400802
   174   3  -5.370775919064265e-05      10.075922666125498      18.389157987822674
   175   3      2.0300530774831893      8.1619659477650472      18.494736539441554
   176   4   0.0032648304909064876      8.0192253778470768      20.027708742606624
   177   2      1.9568445262275551      10.148413420592737      22.158219934216877
   178   3      2.0729834058987775        10.2530815710798        20.2842782853735
   179   3    0.071661624627416834      10.184366143743491      22.309060651975603
   180   3      2.1462991700417469      8.1642955686859935      22.271759817135074
   181   4       3.645931542083988   -0.052892108395983399      11.816607211079965
   182   1      6.0570336095057815      1.9958024894426791      14.093365850939945
   183   3      6.1940758374865714      1.9529935071062301      12.072112427838038
   184   3      3.9734594802484842      1.9599921527007413      14.243988823270252
   185   3      6.1923967356079022   -0.041203585492415963      14.257054140414137
   186   4      4.3546806381793708     0.16871117010700262      15.961203991308086
   187   1      6.0245160317762263      2.0034902494364402      18.200478156279186
   188   3      5.9234771130990591      1.9936086780365581      16.197880222226416
   189   3      3.9457360001910811      2.1688806152654654      18.378611669815463
   190   3      5.9894076210292768   -0.039548956192969109      18.462808345826407
   191   4      3.9291412840387414    -0.24737788761438703       20.11907693911596
   192   1      6.0092674480956578      1.9881759387396341      22.305828815549301
   193   3      6.1330864715606017       2.201118547354695      20.273346792162798
   194   3      3.9880136063342246       2.236140642366546      22.301336711632342
   195   3      6.2654070991103916   -0.024089987513023287      22.237355857803269
   196   4      4.4224091532251606      4.3363038470834105      12.258839823644841
   197   1      6.0692817421162903      6.1156800202772104       14.16764212709851
   198   3      6.0956436428041805      5.9203095728605089      12.149991021626757
   199   3      3.9655746695580865      6.1873288585690256      14.197657234678578
   200   3      5.9928366572073424       4.042292902562072      14.248424249736436
   201   4      4.3915440017533278      3.7694755195837115      16.005085356745312
   202   2       6.187901384531588      6.0348152487573055      18.222709098893983
   203   3      5.9677649855131687      6.2399964474823202      16.248915174639336
   204   3      3.9976166019713149      6.2673809528686446      18.276982962611864
   205   3      5.9938934847447891      4.1185031265931542       18.20175463108756
   206   4      4.2257764062062195      3.6999700944780844      20.162377327481025
   207   1      6.0283837253081503      6.1243467526332314      22.278262058168437
   208   3      6.1675382275199739      6.0410377762519367      20.239888773283877
   209   3      4.0052006621091945      6.1593787060429079      22.457666681146176
   210   3      6.1241601094703348      4.1016637286059536      22.438752564383272
   211   4      4.2785373872328352      8.0300422967485616      11.768446700123755
   212   2      5.9959522207777942      10.052370247531339      14.269372831352991
   213   3      6.2358185180706354       10.19791746287143      12.224246207734943
   214   3      4.0641625172832194      10.161716914531944      14.129171040596921
   215   3      6.1360619630878457      8.1609000228752695      14.167215213609635
   216   4      4.1948529275147077      7.7832712219514786      16.072715125621929
   217   1      6.0894879845624503      10.079910363651837      18.222701928265465
   218   3      6.0769553225318207      10.190841561593743      16.165532861104637
   219   3      4.0003731571925689      10.175827040286736      18.235879797391036
   220   3      5.9884550817817948       8.088868418216661      18.483252506929976
   221   4      4.0777050496173448      8.0555776411854225      19.936945081383598
   222   2      5.9986984323645576      10.203166517359195      22.251662825483937
   223   3      6.2350861294922293      10.211498685381455       20.32890295856614
   224   3       4.097774136052446      10.127428854199318      22.404014203910354
   225   3      6.2225698976687767      8.1723519933659556      22.258715932071475
   226   4      7.8555619140383719     0.20774257509203936      11.985195313845347
   227   2      10.135649237289405      2.0342829492823262      14.018348129117859
   228   3      10.132449670458048      1.8777061226275664      12.137361986131856
   229   3      8.1638315602572025      2.0817409308124901      14.347390090425176
   230   3      9.9968385933328143    0.049842470238869167      14.388781099171185
   231   4      8.0190272588742388    0.067504563822764804      15.835871359379682
   232   2      9.9612056041429735       2.054869219364325      18.177834943155016
   233   3      10.303158465039226      2.0029934088663954      16.276482362554784
   234   3      8.1092808617280188       2.011867063658157      18.247069403211022
   235   3      10.241475978167212    0.080862241660426701      18.382445528033987
   236   4      7.6286230754396511     0.15744133144077038       20.16425668866108
   237   2      10.009526531926575      1.9702252529055921      22.268282844044634
   238   3      10.161290286546931      2.1511072865347702      20.317227794797457
   239   3      8.1456400778551554      2.1796662774507261       22.35134491218766
   240   3      10.136827377958635    0.063723783918636284      22.328260918805714
   241   4      7.9101323755806341      4.4942770030575661      12.267280266273689
   242   1      10.132669242170854       6.038659468567606      14.143113784352204
   243   3      10.269392960248263      5.9719692673870322      12.116909953528749
   244   3      8.1122631393868101      5.9142568766941421      14.311636763107579
   245   3      10.284639629786613      3.9632894512177463      14.292775797383682
   246   4      7.8564370057841106      3.9800976783990367      15.794593213423541
   247   1      10.064177524114296      6.0408967453075757      18.271937533287108
   248   3      10.281045288888649      6.1449768627253318      16.233423522999583
   249   3      8.0706672087061051      6.2007726251216342      18.124992285233056
   250   3      10.288212222583512      3.9907077378178388      18.250603182033924
   251   4      7.6340583080711388       3.935891024479667      20.419088771754666
   252   2       9.994982421858543      6.0163508843507554      22.286113890802081
   253   3      10.298385778169212      6.0209698122965323       20.33722053619169
   254   3      8.1368156692871736      6.0703585611719335      22.337198565908409
   255   3      10.292848384611689      4.0667810936651856      22.342778742254655
   256   4      7.7988714526726808      8.2800691756576921      11.865125376824896
   257   2      10.027587850423885      10.255996214883762      14.204426064985553
   258   3       10.25485281767356      10.101784073748536      12.239938577925631
   259   3      8.1235711524277772      10.200203013289553      14.216252843377948
   260   3      10.247019237698229      8.1378244650486007      14.210139233778015
   261   4       8.247852357871615       7.615267064554847      15.940109848157846
   262   2      10.083350722989854      10.031256808085315      18.315919921937464
   263   3      10.317448080355012      10.047058673281569        16.2097821487442
   264   3      8.1795729730673745       10.12812636123205      18.113237128389436
   265   3      10.309279031702047      8.1339484995516553      18.360369035158712
   266   4      7.6872248658515225      8.0697640086580336      20.256097860466131
   267   2       10.09591299609141      10.025736202372721       22.35956217193252
   268   3      10.134791131754474        10.2416635863202      20.245772634176291
   269   3      8.1664689942243456      10.092814134028918      22.330464851139197
   270   3      10.194100084484521      8.0625041916946252      22.116035418166728
   271   4    -0.38089917020606845       11.99669937398135    -0.35572759653690245
   272   1      2.0098248107246937      14.129354747286847      1.9921366286142692
   273   3      2.0916525071751719      14.253156920121352   -0.048565420279467204
   274   3   -0.067126243938296359      14.106745475151177      2.0806785329932507
   275   3      2.2614235226863957      12.057640711299223      2.0099939437890977
   276   4    0.053977823870706751      12.527313221421048      3.9937747411425635
   277   1      1.9854831940848878      14.148100087574003      6.1092649058544364
   278   3       1.956456133506661      13.935011905102298      4.0786725348245785
   279   3   -0.071445079294545591      13.942040040891236      6.0795216756635941
   280   3      2.0884878883705094      12.065650953712375      6.3228258746608024
   281   4    -0.17284083124371774       12.26611934518262      7.9076886285627372
   282   2      1.9113351155459632      14.219409360489738      10.193720568800531
   283   3      2.2634405068115573      14.148686740297258      8.1720459539802874
   284   3    0.038637724216058066      13.991658138719854      10.021681671074141
   285   3      2.3131032073843567      12.138000559566088      10.066151301614012
   286   4     0.26926572815326155      16.151606598652332     0.44275999977073988
   287   1      2.0424331149617014      18.190551369665286      1.9796612552212842
   288   3       2.002094780386976      18.024725110523349    -0.05970503693935459
   289   3   -0.039937294884474471        18.3555609474721      1.9041801912246634
   290   3      1.8854375264487668      16.165146969275337      2.2306972847298274
   291   4     0.46342391411615202      16.175377765172986      4.1743769623646187
   292   1      1.9932717657101851      18.202196507225917       6.066854126268642
   293   3      1.9357918674492909      18.354088075277872      4.0417626238001327
   294   3   -0.097100098757114936      18.302122904041685      6.0100027059997698
   295   3      1.9975615647540834      16.164918492256401      6.0367963104109057
   296   4     0.22750211838486648      16.577831569392366      8.1806166547564647
   297   1       1.967031044997785      18.168120310208479      10.175413139894667
   298   3      2.1481211642708526      18.111110017032818      8.0835985112598205
   299   3   -0.073829280947870585      18.283038586339185      9.8657146813582539
   300   3      1.9236376495304188      16.126472711368805      10.049191568897834
   301   4    -0.20544379230281681       20.06530756550686     0.22867752959293952
   302   2      2.0339219881688924      22.139781296348918       1.943216404965544
   303   3      2.0528083888676183      22.509115100942577    0.042614675187999163
   304   3    0.088776101997776982      22.338039226066478      2.0430393881604854
   305   3      2.1514313299617425      20.264596043436754      1.9573193651653658
   306   4     0.10773745416706638      19.839911882349394      4.0899942955278545
   307   2      1.9235334520373877      22.168537503795516      6.0731431751191218
   308   3       2.181125648141137       22.32129086099448       4.037622128390467
   309   3    0.031991822079295039      22.264307951351419      5.9427980921434953
   310   3      2.1371939569053593      20.294732250630574      6.0591816374406582
   311   4     0.07215914492689629      20.322612531414805      8.5499550677849498
   312   1      1.9957313273243238      22.247493842593631       10.12802334068067
   313   3      2.0773978031004137      22.363789801130746      7.9922687812982005
   314   3   -0.013697174569520404      22.093201614375481      10.073542045369553
   315   3      2.1877555523433592      20.237118674209107      10.003110288720357
   316   4      3.8854164847422199      12.468995273501367    -0.16667718235655068
   317   2      6.0892955347750783      14.253608335061092      2.0164988071367804
   318   3      5.9037416689224145      14.239335922388213    0.091476870467665089
   319   3      4.1135789674712253      14.157168533421732      2.2651210775912038
   320   3      6.1166734549936379      12.109434477708653       1.928863209131441
   321   4      3.7373326929716497      12.445766527481775      3.9191445815466759
   322   2       6.041591467877538      14.085116991045739      6.0347847990938188
   323   3      6.2434364441015395      14.073883731977608      4.0940545248284481
   324   3      4.1481006207311717      14.161014818451637      6.0748584616528021
   325   3      6.1950112516210076      12.194734963920457      6.1514985605042742
   326   4      3.7554323493940118      12.273963486624451      8.0188683036732353
   327   2      6.0137217077949545      14.097547792299039      10.095951531870012
   328   3      6.1399942370529947      14.309314188909912       8.107351145052256
   329   3      4.1326537773837115      14.275542379907273      10.154544890651163
   330   3      6.1249305474751257      12.202149222412759      10.152447355544831
   331   4      4.3896808472952662      16.271435801375375    -0.27635696201669346
   332   2      6.1002495036707698      18.327427544947529      2.0307876947497587
   333   3      5.8598777368984765      18.136290025873979    0.064165909163223706
   334   3      4.1009952513030008      18.096661337947261      2.3014823268971401
   335   3      6.1305860020090277      16.190619199901843      2.1590497387347831
   336   4      3.7409684028145032      16.185421456883486      3.7593433257720519
   337   2      6.0179693680114434      18.116395869343226       6.074732276945876
   338   3      6.2784117306502445      18.379642899850317      4.0982191096218292
   339   3      4.1367544446762832      18.248698722993442      5.9488598338006629
   340   3      6.2357954274643079      16.239723753929901      6.0737125107684999
   341   4       3.607615950458793      16.172579037552588      7.8754172993824971
   342   2      6.0324647632557236      18.123512104014527      10.162215654532389
   343   3      6.1595355746293707      18.334853339920556      8.0678403589778398
   344   3      4.1395783953245058      18.260499369841558       10.14685915297553
   345   3      6.2558415564667893      16.251868288995279      10.112564322760884
   346   4      4.2878483517680666      20.121344860983186   -0.069353822531601036
   347   1      6.0534028731601568      22.245807073925942      2.0274090534046612
   348   3      5.9902321681753108      22.499965353379583   -0.027162351272930485
   349   3      3.9972648687486227      22.547616843697238      1.9864999570338944
   350   3      5.8815869061603969      20.217744141367771      1.8745910803037571
   351   4      3.7886898633137229      19.866122375154617      3.9866244269958893
   352   2      5.9535730844786956      22.203017807162535       5.944791625449291
   353   3      5.9581056314838188      22.311011960974042      4.0645424765689375
   354   3      4.0627115861707708      22.436730769702635      6.1016437719168302
   355   3      6.1192526874838435       20.30040912766373      6.1436559405619215
   356   4      3.6461778392255102      19.945998543881409      8.2164943699484958
   357   2      6.0269096638102146      22.225171889504576      9.9845426530143442
   358   3      6.2312817064454302      22.403870449989146      8.0764363409447224
   359   3      4.1361319618387098      22.470308976737723      10.097682105108616