(written by ASE)

1080 atoms
4 atom types

0.0      24.299999999999997  xlo xhi
0.0      24.299999999999997  ylo yhi
0.0      24.299999999999997  zlo zhi

Atoms # atomic

     1   4    -0.15565881856809385   -0.061380012690683994    -0.30590943355016553
     2   2      2.0225181899788658      2.0722218628347759      1.9046971373344996
     3   3      2.1300463568863939      1.9336117375874466    0.036333786025046194
     4   3      0.0828855761040556      1.9915962616054759       2.223618824187616
     5   3       2.110459997381636    0.081478000255824343      2.2785887580761583
     6   4   -0.061264052669825819   -0.023909076599617045      3.7665702781615962
     7   2      2.0561495889587245       1.926574233437913      6.0203299494340383
     8   3      2.1572690104382226      2.1503721201426731      4.1288696315709315
     9   3     0.12015015496348101      2.0764550792422365      6.1832051668219776
    10   3      2.1637399937919284    0.036188572524855182      6.1461037898683308
    11   4    -0.28695460387145649    0.014827862839108572      8.1964041765438207
    12   2      2.0498545405557191      1.9178373514512534      10.148560181655533
    13   3      2.1339806056393633      2.0894191096297776      8.1555097116848536
    14   3     0.10482593692685709      1.9137190142627254      10.184312213834428
    15   3      2.3046144587793362     0.01817865062304834      10.132487611443272
    16   4     0.18352974742929132      4.4199370010740608    -0.13000540153880397
    17   1      2.0469593535910255      6.0668735388733799      2.0595424617121121
    18   3      2.0532817217912944      6.0567585103593551     0.01775664712953097
    19   3   -0.036913414532236205      6.0274386206464268       2.198538080067729
    20   3      1.9340950637959031      3.9912665278623405      2.0496110148213655
    21   4    0.032239334427328986       4.113598053149687      3.7272813197892165
    22   2      2.0124307983045635      5.9941333583117054      6.0104401407238734
    23   3      1.9219811275680043       6.074196516327965      4.1209933157676248
    24   3    0.060523913940993629      6.2437176131773899      6.2213126579903948
    25   3      2.0254946918451093      4.0907397952534508      6.2233205323736014
    26   4     -0.1087515428897169      3.7471321852716444      8.0896185681898647
    27   2      2.0865478164389044      5.9598721212881092      10.131041181026406
    28   3      2.0751734194445035      6.2611094637252185      8.1373827728486248
    29   3    0.060332587872760052      6.3545985875997175      10.079205730819526
    30   3      1.8546856942847965      4.0565478074402499      10.158018134646259
    31   4    0.090878873305755031      8.0952396982547405     -0.4585471455556861
    32   2      1.9416457444811743      10.035602782060577      2.0306358708977679
    33   3      1.9683796539375169      10.233297211229134    0.054667902260633332
    34   3    0.027561833719512766      10.268429658075316      2.1383374356363096
    35   3      2.0014380279613238      8.1543247280875111      2.0689850230039561
    36   4  -0.0090636697564010077       7.836838106464155      3.7643821651344958
    37   1      1.9867795075957781       10.07834257957936      6.0643686591062673
    38   3      2.1490974382042718       10.27723687333944      3.9910067118438675
    39   3   -0.046217212808161531      10.264642232354461      6.0724490707622421
    40   3       2.256207982845718      8.0594448237976586      6.0976784082485764
    41   4    0.068083788768549008      7.8439057401237484      8.1516935449703016
    42   1      1.9997970552904911       10.10269831164101      10.137356105513851
    43   3       2.136717033576625      10.185247529867278      8.0972548476648232
    44   3   -0.039815093295705019      10.149216826573534      10.005480529111077
    45   3      2.3457049982904166      8.0929182130446815      10.102015513429134
    46   4        3.87792532097416     -0.2186883799073116    -0.23590967032613969
    47   2      6.0169561090837007      1.9183512413395831      1.9823821268671995
    48   3      6.1690404103630181      2.1870392201534212   0.0041992340616412212
    49   3      4.0864208067276468      2.1354372687518328      2.1326486951309533
    50   3      6.0638356451360256    0.059257628668309074      1.9814083728433109
    51   4      3.9974816381882698    -0.29404341871293627      3.8403078604693701
    52   1      6.0876113875351177       1.971192813641309      6.0744581049151556
    53   3      6.1382982500770291      2.1672711034853736      3.9606207042505859
    54   3        4.05182667392683      2.2592766151379635      6.1057611766079969
    55   3      6.3123692013266268   -0.053344490654014073      6.1146756992240991
    56   4      3.9365143669431961    -0.24418260241135095      8.2968965418897866
    57   1      6.0737540847836504      1.9384391582472582      10.165055745620672
    58   3      6.1662676328270285      2.1477970265844415      8.0910424370243827
    59   3      4.0527202728319622      2.3004891886161576      10.105754353877455
    60   3      6.0388131807450005   -0.072707926124661454      9.9134670602103281
    61   4      3.7830179558509913       4.375635883070446    -0.22229835707601275
    62   2      5.9376951849912736       6.033567212992005      2.0846398835575308
    63   3      6.2659931077452713       6.082816540344111     0.04103465368567101
    64   3      4.0883187435261412      6.0512965761116337      1.9940876091558493
    65   3      6.2685816883716479      4.1162234985507986      1.9950673068459457
    66   4      4.1970661211783327      3.8058798868927068      4.2508182932641221
    67   2      6.0806098932925297      6.1037960349890703      6.2169510930121898
    68   3      6.1909616526299693      6.1127941047948822      3.9804073181572202
    69   3      4.0780174604693942      6.0342638314916073      5.9590609406018373
    70   3      6.1782951489524001       4.135404939116377      5.9131194980517678
    71   4      4.2440062241639662      3.6368529804625367      8.0955123179893658
    72   1      6.0709239989998327      6.0656309266991029       10.11358601742808
    73   3      6.1035861358114971      6.0475016581214902      8.0827167870298489
    74   3      4.0208481157301543      5.8958830194092711      10.290767897376142
    75   3      6.2874941559013733      4.0473651153498285      10.221426175038406
    76   4       3.647996813023064      7.8204779203816193    -0.24266261625299745
    77   2      5.9606200176587887      10.055581983430566      2.0518223124912147
    78   3      6.2908221370979795      10.212759872903185   -0.058101316336748886
    79   3      4.0822175884524157      10.241791985965802      1.8961432141985259
    80   3      6.1054601522860175      8.1397128286662372      1.8874311273724758
    81   4      4.0057352360567551      8.2621166998450821        4.48790253040392
    82   1      6.1057106843309805      10.113953840980047       6.116023244391835
    83   3      6.0663866007864904      10.207532935492116      3.9187575881130963
    84   3      4.0879964795681909      10.239631556506859      5.9983914886726817
    85   3      5.9972759504986533      8.0784153482417977      5.8850556403367689
    86   4      3.6581930500494964      8.2227590419355643      8.0991946249234044
    87   2      6.0595193353487913      9.9576542146338181      10.114652782378212
    88   3      6.1717101336404196      10.262517895059625      8.1619236747992261
    89   3      4.1250658228282457      10.407882851868534      10.092523987209409
    90   3      5.8826531309657684      8.0889701908267888      10.209817041161788
    91   4      7.9955957926766885    -0.32800692621973226   -0.079004587000379101
    92   2      10.058423868339755       1.945972593146851       2.076890384003431
    93   3       10.19944566826709      2.0095439462295022   -0.014781536860890211
    94   3      8.1231119659334183       2.059534720207866      1.9872330966177869
    95   3      10.281985068508037    0.058252326735201372       2.028751992146248
    96   4      7.9250565087058487   -0.056050928623731476      4.3049083787210662
    97   2      10.110097547291995       2.125422106770869      6.2004201657693132
    98   3      10.164143919299137      2.1746300612499243      3.9745948543264946
    99   3      8.1858428510197925      1.9995331167029022      5.8902557822448971
   100   3      10.166828640397968   -0.015621267089393608      5.7952131940368314
   101   4      7.6797552544738386    0.098042414147202411      8.1870903522131826
   102   2      10.118332140180865      1.8828349944052343      10.189495140695575
   103   3      10.196248569393667      1.9239204669564789       8.081684789345621
   104   3      8.1789431408947362      2.0144320395507163      10.085272493770715
   105   3      10.310103104782502   0.0014146695818698274      10.164905181104738
   106   4      7.7515250478975446      4.0818344594374372   0.0075126542910414406
   107   2      10.076225205341672      6.0482802025235811      2.1597453441107821
   108   3      10.122280442552889      6.3547429521356458    -0.10441943354192849
   109   3      8.1687309982987184      6.2909900936878662      1.9386757988798848
   110   3      10.089268564776905       4.129217195576989      1.8155312862287989
   111   4      7.9183674388198479      3.8849059289528052      4.2902289984520765
   112   1      10.108603520101745      5.9970113633166005      6.1155420699672529
   113   3      10.203058797352147      6.0848297130739395      4.0151460994019024
   114   3      8.0627856774018145      6.2837408145655917      6.0623862924656633
   115   3      10.104706643860085      3.9929824022100542      6.0837264444922718
   116   4      7.7423333926277058      3.8369774410750104      8.3633501543720321
   117   2      10.146849537163147       5.940112281841091      10.168422758665493
   118   3      10.138369339626692      6.3672725207012686      8.1369251499746351
   119   3      8.1434737556533623      6.3364395100434372      10.052848817535768
   120   3      10.036635812402737      4.0408923591433128      9.9438584079022956
   121   4      7.8648217372720888      7.9011899020330416    0.094136150225197793
   122   2      10.033085834170995      10.211186583797813      2.0688883741900028
   123   3      10.133934058220525      9.9789991452555871   -0.083566700056329823
   124   3      8.1297094596312807      10.044109913203815       1.947912508894946
   125   3      10.343016031463927      8.1213600054672739       1.983767947082508
   126   4      8.0575942918415766      8.0783511488302189       4.424086461428268
   127   2      10.141552924069764      10.138860306318479      6.2711251065176032
   128   3      10.242042857143966      10.194510737681133      3.9503838126401409
   129   3      8.1428404934847904      10.118468189363298      5.8377791448804786
   130   3      10.130642537905183      8.1854590141308545      5.8656937283010011
   131   4      8.2860687745272372       7.798060424259452      8.1611711971355643
   132   1      10.149321572534594      10.107796896491831      10.113645936582945
   133   3      9.9628895237285331      10.072410214638479       8.116012373988168
   134   3      8.0621501683196808      10.002181268464707      10.336674926214334
   135   3      10.170623754180339       8.088815132255613      10.323682567648131
   136   4     -0.2558984358212642   -0.040950371130582378      11.909865254490667
   137   2       1.958512502530271      2.1261675158819617      14.213369567729366
   138   3      2.1998282995147438      2.0416711164108272      12.141717907101162
   139   3    0.064676180279602341      2.1040812819467383      14.086860682242563
   140   3       2.185745376969753     0.03263122401277016      14.054147278829895
   141   4     0.12174117509506167  0.00041416934971863571      16.577232826478554
   142   1      2.0406632406338749      2.0932912780551911      18.211562760855873
   143   3      2.0563627955600281      1.9122139840878161      16.124241885966185
   144   3   -0.030567877918722279      1.9435257297645834      18.063079217567818
   145   3      2.1099445696615353    0.032022657555832612      18.214495280753013
   146   4     0.21226126408615226    -0.29757003249165348      20.137432854572246
   147   2      1.8946556034219606      2.0428289833275541      22.134144721835032
   148   3      1.9792917621171275      2.2025251835953927      20.261502451098256
   149   3     0.04288768468896384      1.8786750477839487       22.39121928028111
   150   3       2.280192587038004     0.10838578569472716      22.264928604002481
   151   4      -0.207830530471252      3.8113050201542538      12.093493992283575
   152   1      2.0257731325040877      6.0477153372974204      14.107793648844513
   153   3      1.9781038351940838      6.2836597346263776      12.092971825428402
   154   3   -0.015913858557336989      6.3072174170416409      14.119926421774958
   155   3      2.1772398433530755       4.016156163501738      14.248688337383278
   156   4    -0.11658069604303138      3.8907714287789337      16.398726190139442
   157   2      2.0038896387273044      6.1205881188475173      18.120734512394186
   158   3      2.0552001841411731      6.1705692053883601      16.205660351996798
   159   3    0.042303939489165443      6.2954321343350204      18.258836679099236
   160   3       1.712776119896712       4.130216014895538      18.139036400712136
   161   4     0.20707812840377907      4.1716563735440673      20.000777035645957
   162   1      1.9598978073392517      6.0859785640462327      22.212875060124713
   163   3      2.0752631430198565      5.9107392593638322       20.20326289543873
   164   3   -0.063422815238588809      6.1441147438025467      22.415255699285439
   165   3      1.9293898842376511      4.0052222003043907      22.474532307334567
   166   4    0.039877541518052603      7.7585026040843328      12.209427741723415
   167   2      2.0060268737223734      10.110652426857564       14.05346989050992
   168   3      2.2910144226370517      10.182055870270684      12.167395046011508
   169   3     0.06629416196781765      10.163562426442812      14.027238009803007
   170   3      2.1373817084585052       8.175215763461166      14.237695527588606
   171   4   -0.048806595886730711      7.8227270259839576       15.97085860114086
   172   2      1.8420967185834711      10.183720216514391      18.222319895213115
   173   3      2.0078690575736711      10.149393098565721      16.241562321890861
   174   3   -0.010268533721241837       9.943935717453444      18.327556274698733
   175   3      2.1977192511126979       8.096914311473121      18.347603660608897
   176   4    -0.34548396300388823      8.0931228698900348       19.87606981549586
   177   1      1.9527383940671093      10.152931194721724      22.263084752053263
   178   3      2.2267949867437986      10.109643585258498      20.188031535455547
   179   3    -0.06768671624081718      10.010943798489899      22.268709139195405
   180   3      2.1091552519583696      8.1209183193513237      22.322008605170513
   181   4        3.82891882169283    -0.14554441445717037      12.269783575958202
   182   2      6.0327234636013864      2.0121315749584197       14.23812592239997
   183   3       6.135148544333247      2.1637017696900491      12.245332967348439
   184   3      4.1346862219335616       2.019876553192657      14.238988588168699
   185   3      6.2550836678229151     0.06286455719427117      14.166919380524449
   186   4      3.6754133803951214 -4.9151008305817992e-05      16.439681999761202
   187   2      5.9295266651101413      2.0646621784224872      18.212134340923431
   188   3      6.2580367681069564      2.0674239115778068      16.234275844855755
   189   3      4.0858455830675977      2.1097945131917131      18.172827833057358
   190   3       6.124797858780842     0.06453157870786469      18.145973767702358
   191   4       3.637251704153551    -0.25658103791515119      20.138340521471456
   192   2      5.9348139395585155      2.0329559741881762      22.215025382934034
   193   3      6.1759606079406693      1.9892222704621974      20.273574261460368
   194   3        4.06642867462147      2.2263582360588079      22.322540320476381
   195   3      6.0152328966536448    0.093150431006286505      22.428914288883657
   196   4       4.311863825928862      3.9116886019743378      11.830860424794842
   197   2      6.0888202718142139      6.1320744601157244       14.04996954818521
   198   3      6.1585510702226509      6.0508683941940582      12.190989081474648
   199   3      4.1239274657940399      6.0747219558997294      14.326372435034449
   200   3      6.1357724493642527      4.0616868816163425      14.267206259089651
   201   4      3.9684207073462456      4.2953137408550681       15.95109568697173
   202   2      6.0571230801851632      6.2033777598265658      18.216768221894569
   203   3        6.05237074684434      5.9212531735785872      16.292696934773559
   204   3      4.0479553934376611      5.8491332143794068      18.249470191214474
   205   3      6.2125387817592914      3.9903986802484739       18.36145985813485
   206   4      4.0086202576283139      4.4836283669518142      20.392305940609941
   207   1        6.04418345668737      6.0971850988891179      22.306978560927913
   208   3      6.0560408820374558       5.960200558890552      20.232043688809743
   209   3      4.0393697716135621      5.9388471360048074      22.331578465846473
   210   3      6.3294766330582535      4.0038250500787251      22.253839456157671
   211   4      3.8500129750034855      7.9329406082739649      11.904109202214741
   212   1      6.0430626765208224      10.082778224023237      14.162399758125151
   213   3      5.9784773144465424      10.310215328366466      12.128190407313301
   214   3      4.0274085965495239      10.188714402861978      14.445806924440033
   215   3      6.0768493488514617      8.0557802615711278      14.386275771645513
   216   4      3.9662360521013462      8.1726914690669545      15.836466446835949
   217   2      5.9302792517380141      10.223962104217783      18.185543166162724
   218   3      6.2957211421103052      10.143081824714177      16.311097520563152
   219   3      4.0635722941964803       10.17260035374926      18.103143391620982
   220   3      6.0522345982324275        8.10263520209201       18.31585430529427
   221   4      3.5814662176566765      8.1856690712012714      20.443046573494676
   222   2      5.9323146078692179       10.11806621397808      22.309967155458573
   223   3      6.1401098148124973      10.109487264582214      20.273427387240332
   224   3      4.0788090739355729      10.192819073562275      22.322673097759147
   225   3      6.1626422319042566      8.1819425979279981      22.247137621015181
   226   4      8.1511608979183166   -0.094033534826481399      12.530125439573592
   227   2      10.121753251374507      2.1080212945485539      14.359211994251247
   228   3      10.161898635469264      2.1573041169464986      12.098164627849782
   229   3      8.1642084593077744       2.036460314065891      14.098657961373528
   230   3      10.110401535320854    0.077440739256182847      13.951907034112558
   231   4      8.0644246048001129    -0.12096335085925881      16.427934856196281
   232   2      10.022256114527897      2.0679316942336996      18.373204120844555
   233   3      10.215394193550324      1.8960782055225187      16.248114077627466
   234   3      8.1625433637668294      1.9319240488798333      18.265860334780641
   235   3      10.348817546223286     0.10623429483051409      18.310066874537338
   236   4      8.1017200289428075     -0.2729790087832018      20.354501570155488
   237   2      10.019440302566609      1.9813272877108963      22.358375200569448
   238   3      10.232589395355058      2.1465247988111393      20.293052937032584
   239   3      8.1426147819774233      1.9539206640637312      22.288354030145651
   240   3       10.32893723437965     0.10229543596116297      22.225474183384652
   241   4      7.8721153807828204       3.854843857494576      11.991581837013435
   242   1      10.103129026261009      6.0552636440964465      14.113308203611101
   243   3      10.037003246399511      6.0309896534347054      12.093082837205936
   244   3      8.0524586763413666      6.1253545155567091      14.422225976395147
   245   3      10.172439066297548      4.0151055461701457      14.303090627779261
   246   4      8.1667002700914146      4.4543221606983812      16.176160033324862
   247   1      10.026789967417782      6.1079077599992289      18.273465280581469
   248   3      10.201556282406157      6.0845848224206023      16.240548472546386
   249   3       8.006938417149291      6.0279413570938685       18.27045455745905
   250   3      10.179774318786379      4.0118128719947261      18.151886266896941
   251   4      7.7784878247634817      4.2517613118776376       20.25252538157017
   252   2      10.031366660015767       5.967653091305178      22.291680488462639
   253   3      10.336668588916094      6.0211469765922558      20.300825792489437
   254   3      8.1594132200868099      6.2171136477448012      22.129719618061564
   255   3      10.110946063677796      4.0748251586701434      22.347445919982583
   256   4      8.3034067606929582      7.9727589088168171      11.815173603067086
   257   2       10.11867992038688       10.12578210427508      14.062828031225074
   258   3      10.211206291767198       10.18810080808497      12.213339095857226
   259   3      8.1651157831110144      10.113115355217653      14.310571085203199
   260   3      10.133560581986742      8.1723776734947666       14.34786823798675
   261   4       8.082198492904249       8.121499296324787      15.860279197450357
   262   2      10.007369712431768      10.085120224859118      18.286043299921637
   263   3       10.13955759124385      10.120408563878787      16.330997899054928
   264   3      8.1380291272586636      10.059182387868322      18.403338443750272
   265   3      10.320679376866734      8.1714742415568455      18.369997144407396
   266   4      7.7682488455611596      8.1127083203301265      20.408409943751757
   267   2      10.118174156260215      9.9650367954841936      22.311809331502314
   268   3      10.383339635900603      10.294097535107575      20.236282172312606
   269   3      8.2053103577223396      10.070427453642994      22.062568104753424
   270   3      10.318600708613566      8.1037390213272236      22.014969737432729
   271   4    -0.21656127300875255      11.895482538558758     0.11131362089437642
   272   2       1.925718342331086      14.215239852226018      2.1496108968772329
   273   3       2.055464059849077      14.232846894956328    0.054360293674654843
   274   3    0.039030002213157867      14.278851940521909      2.1406695739847907
   275   3      2.0959558657241764      12.234174271769923      1.9705293103917794
   276   4    -0.14378093538977152      11.829521921244117      4.0923236592469809
   277   2      1.9699413954291132      14.091030316462311      6.1366051115670794
   278   3      2.2256185857941877      14.213454351270547      4.0758236947423416
   279   3    0.090671446544933379      14.292830063624388      6.0026913400988589
   280   3      2.0815327210333416      12.211701472905681      6.0710814036488978
   281   4     0.13326536143283066      11.692481709893315      8.1474477221084456
   282   2      1.9596148884984137      14.091718920505841       10.16907486202175
   283   3      2.1344542234565713      14.328268205897999      8.0722725692052322
   284   3    0.069895188792747115      14.382949768696456      10.070401717734537
   285   3      1.9962389048821503      12.233420911164361      10.055666439088045
   286   4   -0.063683186574220715       15.79411573165952    -0.28246932234195449
   287   1      1.9750147420507875      18.168523038700311      2.0373458658775316
   288   3      2.1555234369603271      18.375511695539682   -0.026252288285254402
   289   3   -0.044067696086298194      18.467860745313335      1.9419014919753455
   290   3      2.2312383042548065      16.152533120170595      1.9790489909670563
   291   4    -0.32607699028470499      16.227900521080667      4.2177923107289228
   292   2      2.0840320702359834      18.135100533835249      6.0890834059935823
   293   3      1.9593267308263516      18.451998570808779      4.1029563187402536
   294   3     0.12403917952953006      18.348512803531236      6.1933557568857251
   295   3      2.1415560989387461       16.22374923047159      5.9916561155253598
   296   4     -0.3367214714536606      16.238770676793038      8.0111782113945189
   297   2      1.9541881924672369      18.225912451763719      10.202155869502482
   298   3      2.2370387556271316      18.298849037636298      8.0795359515991105
   299   3       0.072912932007292      18.254326492600676       10.05559602625905
   300   3      2.2710063316057578       16.29968140578158      10.077357738700146
   301   4     0.11395120704821221      19.981235047769829    -0.10547801991565232
   302   2       2.038928421122534      22.213897239505297      1.9479793319581009
   303   3      2.0400393028173487      22.466451293070698    0.053198220507589322
   304   3    0.064132641560189552      22.416921032898422      2.1879350864987117
   305   3      2.0544385155539344      20.336139012160199      2.0498369057147281
   306   4   -0.037559380382747413      19.915274842206021      3.9004840170737407
   307   2      1.9134674520194723      22.214416474471104      6.1209690186392054
   308   3      2.1732205144699686      22.365044329089951       4.147156511957224
   309   3      0.0408938798880982      22.338803088813073      6.1557598479132656
   310   3      2.1537186638487951      20.312437452427545      6.1416177843257964
   311   4      -0.227324048171824      19.992677155002916       7.925340042052806
   312   1      1.9591750014477949      22.230795156695919      10.138273915673132
   313   3      2.2083240393158059      22.357003376165405      8.0602845414426714
   314   3    -0.04013645196067489      22.474546560401411      10.192024394844333
   315   3      2.2070356747575897      20.217641386393346      10.055921496365357
   316   4      3.5145141299795628      12.173124876007718   -0.084417091937360786
   317   2      6.0451353927952383      14.072272882747995      2.0878248659227334
   318   3      6.3714147271132218      14.117948328020541   -0.068608957073564861
   319   3      4.1419010452426015      14.156873240206005      1.7821174005595504
   320   3      6.2578085243040498      12.157258906789702      1.8712406469853993
   321   4      3.9536800348791279       11.88315491063195      4.3530773500969566
   322   2      6.0841392261884275      14.195173750355202      6.2284871403163153
   323   3      6.0214377676686661      14.244063409194133      3.9723656580182958
   324   3      4.0890218934473896      14.192493202880961      6.0560936091175366
   325   3      6.2300663004390158      12.228647616217383      5.9782022014854785
   326   4      3.9100118011559681      11.709159048453911      8.0341159194159228
   327   1      6.0964634166682874      14.148040724009443      10.167211150503853
   328   3      6.2495106940103922      14.229539139311706      8.1157752701890402
   329   3      4.0348096048645843      14.323860502887664       10.10932796737978
   330   3      6.4130289383449028      12.160341555975469      10.148961948702969
   331   4      3.7177618955628295       16.03460768253295     0.14927172517535375
   332   2      5.9918852808490399      18.165589275986921      2.0447280848132348
   333   3      5.9989921530977641      18.485531642921071    0.010582842592499475
   334   3      4.0860852148436972      18.391599569872593      2.0835063216755696
   335   3      6.0351883810287408      16.215661188378558      1.8163421323417248
   336   4      4.1846380173241515      16.184566225301705      4.3631318542070527
   337   1      6.0895872476811457      18.189281369588333      6.0861279951868452
   338   3      6.2346343554322212      18.219800580026686      3.9592387202998931
   339   3      4.0513190378560244      18.286764755612797      5.8157350385894651
   340   3      5.9796643185816478      16.148474821784472      5.9813085859438999
   341   4      4.0329525816810108      15.990951124974409      8.3702239512648386
   342   2      6.0766770311985381      18.202842067479772       10.07846007243775
   343   3      6.1850067157181741      18.392561565455534       8.158901603614968
   344   3      4.1597244821995689      18.391840886550597        10.1224034324422
   345   3      6.0148764697728678      16.295178804529922       10.10134074627198
   346   4      4.0046725324843075      19.923549654131133  -0.0027812524941528923
   347   1      6.0521839611979082       22.24466842201932      2.0384961478635084
   348   3      6.2185608593344464      22.255600719379732   -0.042606940591991889
   349   3      4.0068906881773572      22.407671276664548       2.078416602021357
   350   3       6.315083876779136      20.207750369619504      2.0558667821723797
   351   4      3.8735997901096111       19.97846359152199      4.0229289682190119
   352   2      5.9800562396687704      22.254170014605897       6.038240345552393
   353   3      6.0951301174379733      22.388681453529426       4.086624065167892
   354   3      4.1022665153871181      22.361768232617713      6.1399001294420898
   355   3      6.2702944837184491      20.307635000313145      5.9909407639497854
   356   4      3.8046185909352834      20.271433335386902      8.2984168338302577
   357   2       6.099415031754118      22.264779686263594      10.264667467816249
   358   3      6.3284331151211015       22.21550708053968      8.0443170995776772
   359   3      4.1976543305768015      22.193648355766573      9.9555546777733959