(written by ASE)

1080 atoms
4 atom types

0.0      24.299999999999997  xlo xhi
0.0      24.299999999999997  ylo yhi
0.0      24.299999999999997  zlo zhi

Atoms # atomic

     1   4    -0.12929664258455717    -0.06267051508163099    -0.32386880982588123
     2   2       2.022401240434609      2.0701618522889222       1.911656628729314
     3   3      2.1312112047144036      1.9580440528316188    0.047821796131509831
     4   3    0.077711866186285367      1.9977878273040026      2.2267970324674442
     5   3      2.0883056974703487    0.077531519837354457      2.2876227234342745
     6   4   -0.068308517569317093   -0.017396649280374925      3.7702317879381915
     7   2      2.0527030300839741      1.9220330389664635      6.0342524313526402
     8   3      2.1477149835769094      2.1599181480352314      4.1382024602204712
     9   3     0.11665693529072935      2.0723971391273102      6.1932524153693596
    10   3      2.1679167971678344    0.030798120124569832      6.1277126756052134
    11   4    -0.29555896404694104     0.03056763235873548      8.2171021369356403
    12   2      2.0534092946237767      1.9135063138888397      10.166194195125184
    13   3      2.1489822088144228      2.0853639051612256      8.1457803514129949
    14   3     0.10367070959218376      1.9162106594569241       10.14689783493589
    15   3      2.3051443137109495    0.014287270268898837      10.129958942238924
    16   4     0.19612094940453037      4.3859876930117903    -0.16094772311145045
    17   1       2.042423305374554      6.0641018900444479      2.0565741779280282
    18   3      2.0518248915264543      6.0536223365547901    0.017363667940631562
    19   3   -0.040734113391008339      6.0280021887739128      2.2010128009205991
    20   3      1.9356300665010306      3.9915241841001663      2.0633838626970351
    21   4    0.037764213243868278      4.1066356139030038      3.7275539028426121
    22   2      2.0098469572308337      5.9963630597785791      6.0100981073580124
    23   3      1.9169773659751432      6.0831991758110036      4.1204869137532576
    24   3    0.058085947368744853      6.2496111866585196      6.2213809796096138
    25   3      2.0238039184714616      4.0955255497120673       6.221359797577958
    26   4    -0.10445993139093042      3.7399145744427278      8.1067068461596179
    27   2      2.0833941704594694      5.9606985940781758      10.128466344923739
    28   3      2.0758361074815204      6.2677279276240032      8.1351930076612362
    29   3    0.057927155835635187      6.3561930453153535      10.077940637203818
    30   3      1.8575879184264397      4.0586211591864201      10.134565061646764
    31   4      0.1115909244653496      8.0759547601651889    -0.45682136814814928
    32   2      1.9456761751132361      10.037256177329759      2.0358926116199765
    33   3      1.9476846769210432      10.274460327683459    0.054388466925055119
    34   3    0.027108363821064432      10.291776937505029       2.130482308197013
    35   3      1.9884031620637637       8.158730632665673      2.0531090222768897
    36   4   -0.013572015161611954      7.8313946135038268      3.7670824363691149
    37   1      1.9864737419903822      10.080571642979111      6.0625772341720783
    38   3      2.1462905986054848      10.279625134496314      3.9875024191994024
    39   3   -0.047666515220348087      10.263250365908295      6.0776698756466585
    40   3      2.2572360296887433      8.0635826486656352         6.0970769140284
    41   4    0.064142351493816904      7.8461112349550239      8.1495417505973062
    42   1      1.9970673324473289      10.099954663721315      10.136624350586063
    43   3      2.1370454025440946      10.187455566960358      8.0969515783605246
    44   3   -0.042489429080591092      10.146322201899441      10.002123868846507
    45   3      2.3451810411281047      8.0933315712880649      10.100748493138145
    46   4      3.8996452194777405    -0.25754357514785126    -0.22793541190947469
    47   2      6.0148840626502169      1.9159684201529608      1.9831455799439022
    48   3      6.1483779315857774      2.1980722194307409    0.020006040346649687
    49   3      4.0820521419492559      2.1254227097935616      2.1543988429636531
    50   3      6.0685332809711356    0.057829428839630673      1.9864317910092724
    51   4      3.9920388644885505    -0.29631694739522307       3.844769826146853
    52   1      6.0855274931105958      1.9723349997393234      6.0734023092261653
    53   3      6.1421935314782745      2.1686225016643665      3.9650352706658225
    54   3       4.052118378371385      2.2613921736548228      6.0988256022970528
    55   3      6.3116091047845941   -0.054902715129505376       6.115589500959719
    56   4      3.9366407802055288    -0.23837363439836765      8.2991834556221882
    57   1      6.0730518102418563      1.9377145705530312      10.159812705674748
    58   3      6.1630991181700905      2.1489476294021292      8.0885045908509596
    59   3      4.0535439026044262      2.2935217304946494      10.103549972310589
    60   3      6.0349374259076933   -0.073565354354225829      9.9050411218872902
    61   4      3.7734588122666479      4.3569956428272922    -0.23341097214582021
    62   2      5.9346818213028127      6.0323284539665378       2.084559459405984
    63   3      6.2638465881105354      6.0878938092087873    0.046158344964992798
    64   3      4.0868590826174627      6.0651552734924525      2.0022872802472573
    65   3      6.2608173135613452      4.1192299296266235       2.006118446703621
    66   4      4.1799930536022298      3.7929336995668921      4.2404260768055373
    67   2      6.0762705118205496       6.099184457841246      6.2142127520561035
    68   3      6.1991116296071871      6.1257326213624657      3.9807474216100931
    69   3      4.0776130045211634      6.0406148529457884      5.9551572371689998
    70   3      6.1844744431079866      4.1391335508551377       5.914999556590117
    71   4      4.2324682227019261      3.6310885266684885      8.0934884120836301
    72   1      6.0713498876721701      6.0674371678631767       10.11066780774704
    73   3      6.1032683946676478      6.0535964505344664      8.0805914135930816
    74   3      4.0197517237660936      5.9010161583470389      10.294415526195214
    75   3      6.2829929145496655      4.0473174029281251      10.224124241982505
    76   4       3.659496044244825      7.7957516919691541    -0.25008861103551039
    77   2      5.9537667586894436      10.058413347574778      2.0448129301329359
    78   3      6.2879024412404112      10.233876356543201   -0.057177298145197369
    79   3      4.0744766997130206      10.241403896008926      1.8809977412915331
    80   3      6.1103540289424565       8.147840089736464      1.8844342372648006
    81   4      4.0113350277189976      8.2587077595192078      4.4908149769026817
    82   1      6.1054910023312363      10.115250225276652      6.1137917121125511
    83   3      6.0591247452075869      10.212379298899982      3.9117085426729297
    84   3      4.0878411159181693      10.245171299392604      5.9970857819205383
    85   3      5.9972792295847723      8.0818902788465508      5.8833113057550657
    86   4      3.6573120919884126      8.2239059243430912      8.0973364339649336
    87   2      6.0604752990347164      9.9634167843607635      10.115376606654724
    88   3      6.1769840062986558      10.266174587098545      8.1619786669849432
    89   3       4.127497682332967      10.410111497397581      10.093438186192289
    90   3      5.8852317549692712      8.0942113663551041      10.209914764246264
    91   4      7.9405222188827898    -0.34816629631557211    -0.11781244608498317
    92   2      10.053732725119374      1.9335958273201315      2.0639200981671064
    93   3      10.215290979056595      1.9988574784559494   -0.011774850088356636
    94   3       8.121197059574639      2.0683984046012571      1.9884812145277195
    95   3      10.283410124481593    0.047266918465585603      2.0442559010912507
    96   4      7.9200677154687273   -0.053279029388171154      4.3034154196167895
    97   2      10.108164131485028      2.1262019060562047      6.1952147895008407
    98   3      10.163412024346124      2.1750620410095474      3.9673070488787001
    99   3      8.1843509791103202      1.9989287676250374      5.8892099685649972
   100   3       10.16399786686331   -0.016787525767732649      5.7896507153645382
   101   4      7.6813203932193392    0.097043889147184939      8.1870754821397806
   102   2      10.119637254726499      1.8853688256847603      10.187171590206408
   103   3      10.193455042138387      1.9240239109344199      8.0762137023989844
   104   3      8.1772708146463433      2.0168535174687081      10.082691249936671
   105   3      10.306696801802728   0.0028675372818564673      10.161661430578231
   106   4        7.74652685321478      4.0680812027734756  -0.0030121458634985855
   107   2      10.076329275192659      6.0420956231931635      2.1492121284114383
   108   3      10.126611645662019      6.3567441891513976   -0.094689840075102283
   109   3      8.1704322824184938      6.2972500619487599      1.9389988126045754
   110   3      10.091195824495962      4.1293153067301764       1.818971781720613
   111   4      7.9141928409357405      3.8755218330397767      4.2787669142085933
   112   1      10.104900096420714      5.9972847641575031      6.1110455007546429
   113   3      10.204391625458852      6.1009717223518001      4.0074776391392577
   114   3      8.0631586077039277      6.2954980032267818      6.0647996885364917
   115   3      10.103721832443536      3.9939496178049096      6.0779057005144566
   116   4      7.7384570406888811      3.8349127414710629      8.3600219250657801
   117   2      10.145389191075184      5.9398813776628741      10.164879766523649
   118   3       10.13752224314937      6.3715861654583454      8.1330056648976434
   119   3      8.1437700905797392      6.3378754787646017      10.049166947709725
   120   3       10.03595383705893      4.0409878057722386      9.9357630151096163
   121   4       7.864051643793208      7.8883084501894203    0.081400086204069105
   122   2      10.030956400289217      10.203489948532532      2.0620337505932183
   123   3      10.168288070802008      10.025978027563415   -0.096545467864623272
   124   3      8.1304515854782675      10.070996539765998      1.9374944990320404
   125   3      10.347606792379985      8.1404211269777296      1.9761811713287623
   126   4      8.0468537138734639      8.0689169563520036      4.4180473065936781
   127   2      10.137260407265854      10.139626529448851      6.2662293339474981
   128   3      10.261687190700188      10.204628167876342      3.9409305986882419
   129   3      8.1430457443309567      10.120986153065511      5.8266642177224544
   130   3      10.138631774450934      8.1908799537751982      5.8590665273611586
   131   4      8.2760485725373929      7.7941101256955951      8.1502672553431363
   132   1      10.145902120432776      10.102590829941914      10.108578140518349
   133   3      9.9573203797245888      10.070760469852953      8.1107343028524124
   134   3      8.0653136543892696      10.000525587932831      10.349346699204498
   135   3      10.171892803161548      8.0870563240807307      10.328418390984581
   136   4    -0.26492619152410085   -0.023557958512868585      11.916625432504825
   137   2      1.9770652516297975      2.1112283694371485      14.251121973441872
   138   3      2.1707681861726016      2.0531144048009202      12.125525432235708
   139   3    0.071385137415225966      2.1328786583823258      14.083956817888177
   140   3      2.1220941822774941    0.025443833204860062      14.014346484103715
   141   4     0.16702104911126855   0.0073777974433378041      16.575882917842005
   142   1      2.0558056587406583      2.0806503637988336      18.207128451107533
   143   3      2.0293440249809196      1.9392583537415495      16.134004438120122
   144   3   -0.021819852238426092      1.9417828649885924      18.066767776952652
   145   3      2.0834985827040939    0.022979161476643563      18.215462931935388
   146   4     0.28794178455881869    -0.29698375401125399      20.125181622650985
   147   2      1.9134731423630369      2.0141905204202515       22.12718332664063
   148   3      1.9439243436610532      2.2127018020719658      20.259100168684832
   149   3    0.052089069288277404      1.9084214737058418      22.410254297721139
   150   3      2.2314548181221028      0.0947421072875336      22.303770587824555
   151   4    -0.18567963678857821      3.7972434075536259      12.117538117803457
   152   1      2.0248446116767926      6.0403114282961967      14.107701132594238
   153   3       1.973957574481203       6.280474964292071      12.091798561364286
   154   3   -0.017571212707008177      6.2912073637034185      14.121714701785965
   155   3      2.2110289496095752      4.0078720963851344      14.227185733000191
   156   4    -0.10871536121167792      3.8823154329505996      16.399197538965392
   157   2      1.9829873308844024      6.1216485989351908      18.126280335231133
   158   3       2.088284296921036      6.1452109771088645      16.205770101125822
   159   3    0.040966617674586654      6.3220532109732304      18.226348150460094
   160   3      1.7169233316032904      4.1335780711264842      18.157816738260802
   161   4     0.17234890842202577       4.099746268741602      19.991974005705462
   162   1      1.9590028141134397      6.0778337594685317      22.206259737067409
   163   3      2.0938006054845242      5.9561105657427822      20.195260753680593
   164   3   -0.062094188812536401      6.1359488596188783      22.420888219417531
   165   3      1.9437749520523167      4.0028983602419048      22.470840700704922
   166   4    0.038031536840043831      7.7549095201821769      12.209646394099618
   167   2       1.997944419659665      10.102988467027005      14.054230955613621
   168   3      2.2947085132502485      10.174365213988603      12.168983927539241
   169   3    0.068907947524301169      10.182472155592816      14.032608818477808
   170   3      2.1247417340912018      8.1745547220922461        14.2478048799354
   171   4   -0.075362247887682948      7.8220070624498099      15.974227297732279
   172   2      1.8483928488772592      10.186873245762778      18.215985172416929
   173   3      2.0202497493700955      10.182385223315567      16.235672350175701
   174   3  -0.0056942594476009807      9.9433762329193698      18.312084417866267
   175   3      2.2151953264234518      8.1051599210445886      18.316538189539255
   176   4    -0.34137572456767029      8.1034503610064377      19.876918298638071
   177   1      1.9574151911208866      10.153796479918245      22.262572298042262
   178   3      2.2259857301289863      10.095936100114702      20.187175367344842
   179   3   -0.064368389925909875      10.036519550015868      22.281747091703107
   180   3      2.0971168978506767      8.1199135582993964       22.33321784788491
   181   4      3.8450516960455028    -0.14950030658302951      12.273417130358345
   182   2      6.0214214923552554      2.0119828340864667      14.232099829387014
   183   3      6.1429954927242649       2.148779850732772      12.244344943825462
   184   3      4.1258978627798584      1.9660159872846956      14.205937781445302
   185   3      6.2775336815692953    0.065191813061279164      14.184555508723317
   186   4      3.8090173406188459    -0.23590296862597032      16.556299662343349
   187   2      5.9200214468709982      2.0548673732580958      18.188389633611685
   188   3       6.231872720796451      2.1293914056121515      16.230625850618086
   189   3      4.0770818684868262      2.1115918160256486      18.210924758725643
   190   3      6.1454992647633597     0.11059298305181191      18.170857390290109
   191   4      3.7801241096862013     -0.3377202958845622      20.009833631043449
   192   2      5.9289272420186192      2.0317042736309032      22.210222146755271
   193   3      6.1773452689393933       1.988283708400169      20.292141795124138
   194   3      4.0579942673699705      2.2180119885950988      22.326634406670053
   195   3      6.0093884587170701    0.092615109785940758      22.485865567246947
   196   4       4.314308341334371      3.9178902020229613      11.827143367627814
   197   2       6.093390880834173      6.1286797596724547      14.042885915538632
   198   3      6.1601632817974865      6.0605138213677607      12.184847307719894
   199   3      4.1270658577067776      6.0998959770045955      14.324723839827564
   200   3       6.091592562782072      4.0609599205412392        14.2398587807167
   201   4      3.9551173996445654      4.3113651652159524      15.956412879267967
   202   2      6.0462195380878931      6.1883332986412745      18.215132941745679
   203   3      6.0582944481500967      5.9165919246328134      16.290132873148394
   204   3      4.0535664750563702       5.860281863926593      18.255484822469167
   205   3      6.1882898419023151      4.0182500239349359      18.408548795936436
   206   4      3.9994158559763613       4.482047643712284      20.375683657862091
   207   1      6.0430807603521073      6.0875378120958983       22.31217896728382
   208   3      6.0799705974685017      6.0062278175045751      20.246322084653997
   209   3       4.039799262589244      5.9488200357526715      22.336768482095934
   210   3       6.312687612936986      4.0005166722601864      22.266055761284743
   211   4       3.853348779258424      7.9283576341266011      11.899044698315175
   212   1      6.0498216541476886      10.073512342811009      14.157984113086298
   213   3      5.9819207662588649      10.316916050527906      12.129720515166873
   214   3      4.0354811116429712      10.173384956086732      14.446145197041513
   215   3      6.1042007075020361      8.0524478327063367      14.389935504178768
   216   4      3.9623482365610099      8.1507737389703188      15.837868205570519
   217   2      5.9416454135233376      10.222368558823415       18.19477359534871
   218   3      6.3065097131359193      10.145929463466453      16.317856001718173
   219   3      4.0750839819929947      10.180673396732871      18.105281950457353
   220   3      6.0728100130016474      8.1014525756854407      18.318061529645004
   221   4      3.5684829013063188      8.1640512603217328      20.434288289514946
   222   2      5.9279721417069506      10.116364524921183      22.312305753383551
   223   3      6.1449758978900526      10.114245780582133      20.282030868814747
   224   3      4.0760667182139354      10.190382558531601       22.33233089411095
   225   3      6.1751788714502895      8.1866652655293493      22.263450441979412
   226   4      8.1426034589760707     -0.1079209904033312      12.521173096121732
   227   2      10.105852032116596       2.088875488531055      14.375864156395913
   228   3       10.15600780397337      2.1609855802879072      12.095938277457179
   229   3      8.1583667152215629      2.0704087726923692      14.108890853884835
   230   3      10.096417484188692    0.081209531341116997      13.942155748412006
   231   4       7.973056217400539     -0.2109773469380524      16.472897686250487
   232   2      10.007877707815435      2.0437608841396755       18.37151693726603
   233   3      10.224780755373569      1.9014352260142524      16.266757040323583
   234   3      8.1510068852417543      2.0051853025789401      18.288002930601269
   235   3      10.301044398636671    0.095239226862292012      18.365900594749551
   236   4      7.9298680164152806    -0.30068737268722823       20.26854183634671
   237   2      10.007510561875597      1.9541820143097179       22.34196862664658
   238   3       10.22269806098833      2.1738102181970302      20.307017004633796
   239   3      8.1322151945182686       1.954295405247052      22.328360946701043
   240   3      10.335037089533571    0.087460874047523729      22.232784311050061
   241   4      7.8775607465935833      3.8456916519642186      11.986818595290206
   242   1      10.102431826107649      6.0393507956921466      14.111302241053332
   243   3      10.040563612449587      6.0193781829267721      12.090847174174701
   244   3      8.0544868055302636      6.0926118462903309      14.422784543689353
   245   3      10.213302473714588      4.0013076459907184      14.304511651322837
   246   4      8.1635373554616812      4.4474213365034405      16.192806083471726
   247   1      10.032518150616625      6.0833009813865724      18.279346087026948
   248   3      10.202611616602407      6.0725129743591761      16.241962078481809
   249   3      8.0122418163233373      6.0136116349769528      18.269927334615119
   250   3      10.213782843383127      4.0029137878389101      18.167163299338796
   251   4      7.7712601794697758      4.2344238399824272      20.226957347905991
   252   2      10.028189863188215      5.9479483864943665       22.29905907655349
   253   3       10.32828866271937      6.0010954833298369       20.31587560310513
   254   3      8.1575417070670415      6.2091083017839441      22.158005926100749
   255   3      10.115448693694077      4.0638327705624437      22.384162240042059
   256   4      8.3019655007486115      7.9713697166362643      11.811625824984086
   257   2      10.116655330045329      10.124374943910237      14.067902116219347
   258   3      10.220262990032641      10.192526008533983      12.218003057574142
   259   3      8.1666504195301375        10.1304790438369      14.307405361155975
   260   3      10.121654776478609      8.1676363638583673      14.346538082886426
   261   4      8.0871694528326419      8.1035490375009864      15.863284269112766
   262   2      10.024154096227033      10.023637470028106       18.29244609797664
   263   3      10.121558412138521      10.106441868309872       16.34278239501916
   264   3      8.1528496661969214      10.074728842439649      18.418080870070991
   265   3      10.291367707915432      8.1351185344043948      18.401707385832481
   266   4      7.7433048661378825      8.0551269101735503      20.391720934837632
   267   2      10.105623383062181      9.9562659885070772      22.284453482092299
   268   3      10.387544019494221      10.306548663814945      20.244859970223533
   269   3      8.2051228394017972      10.126329875703902      22.086907290258679
   270   3      10.291980337618366      8.0992773738149353      22.027343893569345
   271   4    -0.17210539014301138      11.864161855457629     0.10025710762058959
   272   2      1.9176983886367391      14.221219336183102      2.1469108946697442
   273   3      2.0547567979104837      14.225297579909494    0.051844052098615367
   274   3    0.027742955310985518      14.257776058147385      2.1443988219569787
   275   3      2.1035866381266199      12.241252906999559      1.9743493723541552
   276   4    -0.15421725098225153      11.839661016102202      4.0773254386527089
   277   2       1.966577416932056      14.092724867334228      6.1337857031201137
   278   3      2.2117293394081439      14.222589493764994      4.0779646536016445
   279   3    0.088286701769246634      14.292552445749301      6.0238098363789918
   280   3      2.0800347496101232       12.21301509320659      6.0722503434510067
   281   4      0.1297258888365789      11.692830243857731      8.1418133178414092
   282   2      1.9626879195347173      14.085942141675634      10.166309724570333
   283   3      2.1373486612218642      14.330289276982876      8.0765741836854854
   284   3    0.073944658530421911      14.381710061885771      10.077497114264025
   285   3      1.9978439951685489      12.227419037937256      10.063533377610275
   286   4   -0.025796524940740216      15.843151444751848    -0.32436584461841256
   287   1      1.9690687516537642      18.174347705976814      2.0348170237624315
   288   3      2.1407928846034898      18.393301311728472   -0.028871179582808354
   289   3    -0.05447704508375794      18.462008350652251      1.9436284667947772
   290   3      2.1976268320531576      16.157544475568457        1.96822584056793
   291   4    -0.34281157761339381      16.228184530287606       4.203650350588525
   292   2      2.0764633250430848      18.133333354605714      6.0917707147013411
   293   3      1.9477182621808655      18.447233811298528       4.111539227548886
   294   3      0.1218432278364843      18.346749149721408      6.2146756705092141
   295   3      2.1445501137247627      16.222525732325373      5.9986457742765662
   296   4    -0.34137732414277777        16.2277853178656       8.002162014183595
   297   2      1.9502055038551271      18.229771677570184      10.197496157059769
   298   3      2.2498814748058389      18.279610961603602      8.0888407005857701
   299   3    0.070582978005173685      18.249695544473337       10.05791003307829
   300   3      2.2882447350778672      16.299102898648762      10.104565483869115
   301   4     0.17095836016427055      19.946021318395651     -0.1212615901154573
   302   2      2.0288118871310332      22.208683264441266      1.9566947246649509
   303   3      2.0049255967223618      22.437293229434349      0.0635550254938827
   304   3    0.054400917515468113      22.403942357866384       2.212491135176093
   305   3      2.0635862290088336      20.330275915277582      2.0673114568201418
   306   4   -0.055011889304234771      19.916008599966727      3.9036978184810618
   307   2      1.9098408262254569      22.213709635410435      6.1285704585706533
   308   3      2.1952261986752535      22.346098196463569      4.1513747269675836
   309   3    0.038320495658438453      22.334370942979064      6.1360459026404879
   310   3      2.1536715015577528      20.307921832269287      6.1570045662241082
   311   4    -0.23756910375032564      20.001766565271382      7.9257101436672901
   312   1      1.9581753116168947      22.229418016147857       10.13137177408961
   313   3      2.1890796256069098      22.365435754710237      8.0605904705920004
   314   3   -0.040962309433475182      22.457623521077366      10.210523155720171
   315   3      2.2083192593020757      20.214723903557889      10.049723124440789
   316   4      3.5154065429475856      12.182206135121566   -0.074931395681056265
   317   2      6.0291742336058523      14.085934143062692      2.0849133901492429
   318   3      6.3349919469343883      14.115405488052174   -0.064644140747521117
   319   3      4.1310704845707278      14.172855615678433       1.805939059706039
   320   3      6.2447853552127528      12.166527268906691      1.8771940516939247
   321   4      3.9566934639091862       11.89230328976798      4.3573079777178236
   322   2      6.0836520201543145      14.200551845437277      6.2277296072074089
   323   3      6.0315120115291307      14.259838994774871      3.9722588973322117
   324   3      4.0900085065632759      14.185003017311827      6.0533669432631578
   325   3      6.2323766943827481      12.229709423125463      5.9754404845993783
   326   4      3.9074238961161312      11.711700188284309      8.0332410490308792
   327   1      6.1030135190440378      14.156361293405103      10.177702970890032
   328   3      6.2606218746604121      14.223542984430873      8.1168686698681043
   329   3      4.0381796936070753      14.320229513997374      10.110674392078705
   330   3      6.4252432225993088      12.164483426358476      10.146226438132883
   331   4      3.6697857997494761      16.081191634744076     0.11920265636148271
   332   2       5.986083372428272      18.176547190855743       2.050290235516238
   333   3      5.9988108324854945      18.489778763879691    0.020791625288672316
   334   3      4.0804114511243945      18.372759784855571      2.1014996525773961
   335   3      6.0608826839916681      16.218852873962373      1.7978819154968928
   336   4      4.1832382132838699      16.197128727396034      4.3669984578794381
   337   1      6.0891009535316361      18.190180335058798      6.0879361895055171
   338   3      6.2446143702373167      18.199469427944997      3.9646087691287568
   339   3      4.0486355199372372      18.286312315715236      5.8158736039706875
   340   3      5.9706169479442135      16.150504331236689      5.9978297143682218
   341   4      4.0300720962784089      15.990563259174518      8.3710184225885342
   342   2       6.079407228287895      18.194346746772545      10.085413099771017
   343   3      6.1819939285259178      18.394156873708162      8.1632919404510051
   344   3       4.164800471281576      18.394267615295895      10.133578706307839
   345   3      6.0147115677829399      16.291904189516409      10.091579012848229
   346   4      3.9926043381496537      19.919141233491082  -0.0019271594932170927
   347   1      6.0463909869512724      22.243389432837063      2.0333430585508525
   348   3      6.2347455320400034      22.234471755663023    -0.03487316249067271
   349   3      3.9985770365950373      22.426001515879758      2.0567555015446617
   350   3      6.2985785130158121      20.202434776047586      2.0793923625426585
   351   4      3.8595520104667065      19.984372071737393       4.032387901494614
   352   2      5.9782012902193999      22.253561569249101      6.0406486834306738
   353   3      6.0703099699073828      22.388071412538945      4.0891847621777497
   354   3      4.1021637314093438      22.354032661548786      6.1632151439997243
   355   3      6.2718719154559857      20.305308872292734      5.9895129342331366
   356   4      3.8127658319405575        20.2612669148447      8.2914022448956004
   357   2      6.0990595176644771      22.259959375350501      10.261258782180466
   358   3      6.3452506089780689      22.212350244442682      8.0430641239181835
   359   3      4.1987690465686853      22.191131254591653       9.933599966596331