(written by ASE)

1080 atoms
4 atom types

0.0      24.299999999999997  xlo xhi
0.0      24.299999999999997  ylo yhi
0.0      24.299999999999997  zlo zhi

Atoms # atomic

     1   4    -0.12174534131591423   -0.063918937969141984    -0.32764063990331055
     2   2      2.0151280588151841      2.0545013009078765      1.9157683047924907
     3   3      2.1172199100955358      1.9452245313629291     0.05298204133056246
     4   3    0.067457502045350448      1.9990002004434078      2.2329865004586837
     5   3      2.0745794236611492    0.076852055066837552       2.287081818786342
     6   4   -0.068743616805834601   -0.030708135562912353      3.7716701257282321
     7   2      2.0314153361214928      1.9220022112995685      6.0367029675349491
     8   3      2.1388829745344218      2.1689768594196113      4.1355191143603163
     9   3    0.097474737603017156      2.0779854748722131      6.1791091529923747
    10   3      2.1522508103653912    0.034419998327054772      6.1297778429259955
    11   4    -0.30326142175499715  -0.0045188956242661737      8.2432586720068315
    12   2      2.0440453141662704      1.9085966219626262      10.158412378540261
    13   3      2.1389975189533974      2.0877211593319265      8.1341969298961683
    14   3    0.094853110610035957      1.9219440926396811      10.129238262411986
    15   3      2.2841118214594021    0.013671916592412049      10.124305593772444
    16   4     0.20443996472125037      4.3807589262983031    -0.14714085360279761
    17   1      2.0336653814078112      6.0666151871785416      2.0573302245993474
    18   3      2.0271664057410064       6.066091316585891    0.021057106809756771
    19   3   -0.047176138707294188      6.0364330828629349      2.2110949685321084
    20   3      1.9268673345979253      3.9889740583993598      2.0548712953091566
    21   4    0.031640395558280313      4.0945500797887933      3.7315032703458741
    22   2      1.9948800578291064      6.0040376959778872      6.0098687276992182
    23   3      1.9178951972286222      6.0936658260271637      4.1196003905062719
    24   3    0.050607555134831964      6.2724710188579564      6.2106060985336073
    25   3      2.0083821664369372      4.1050652152542835      6.2172870525286923
    26   4    -0.11579484078627031      3.7403060628454607      8.1140204902069453
    27   2      2.0776586867777977      5.9635052378488878      10.125909647980158
    28   3      2.0594996379201214       6.281056987614841      8.1304502388112372
    29   3    0.055670678860939765      6.3603655906945509       10.08194922102188
    30   3      1.8549343673157794      4.0633762809106182      10.118242860600827
    31   4     0.14126936289394365      8.0549285598744262    -0.45498216096584576
    32   2      1.9369921754086903      10.037725681466181      2.0394585919150834
    33   3      1.9260471499674539      10.277741424685185     0.05456064450611188
    34   3    0.019982696460086859      10.302937240428253      2.1355048353106998
    35   3      1.9690355326330888      8.1616974004499507      2.0586673077202158
    36   4   -0.016645740170670366      7.8318582724981924      3.7817067725422615
    37   1      1.9817181792181477      10.087900904320611      6.0639983142093019
    38   3      2.1431177266059329      10.284129231873107      3.9873003901666295
    39   3   -0.048253425734717977      10.269593975702907      6.0734695863927994
    40   3      2.2481340175887428      8.0750900294315464      6.0933929867806889
    41   4    0.049667602849340992      7.8486624912493141      8.1538798084920572
    42   1      1.9965059715489912       10.10823040158362      10.141366777199877
    43   3      2.1299537777138369      10.192507263522447      8.0990792277411181
    44   3   -0.039193056909246043      10.161662001932267       10.02057406599744
    45   3      2.3314424766748858      8.1019221009773776      10.105562931857209
    46   4      3.9021173241659883    -0.24843300284765335     -0.2430820743316717
    47   2      6.0103752012731286      1.9077954519835449      1.9957670766169382
    48   3      6.1751373026381682      2.1829444349369704    0.058407719253156548
    49   3      4.0767488350105658      2.1309427378315693      2.1491742272893406
    50   3      6.0793731887814175    0.054051517632935947      2.0205658734872198
    51   4      4.0132017158412943    -0.32850865353743841      3.8863002935393047
    52   1      6.0418722902970625      1.9690967380710058      6.0479346203390518
    53   3       6.098996816731594      2.2226608758998792      3.9797505461591185
    54   3      4.0269527540739904        2.26795771293847      6.0924277948959817
    55   3       6.230794907372128    -0.04250939615365866      6.1228508863237341
    56   4      3.9139043199653991    -0.24803814616478961      8.2471789154891368
    57   1      6.0552122330090716      1.9338469049687728      10.120717812523598
    58   3      6.1476674891406402      2.1565442380976809      8.0682133010881927
    59   3      4.0400185745531951      2.2886628207012349       10.09510588190963
    60   3      6.0616710678662766   -0.081074469287433781      9.8815091859058093
    61   4      3.7683360645482531      4.3360570943611147    -0.22791847737712612
    62   2      5.9251497338058474      6.0467679556674474      2.0721488720716983
    63   3      6.2614578245513881      6.0928921124796247    0.062260825305347565
    64   3      4.0802375405861611      6.0713548769086962      2.0116537368462435
    65   3      6.2721477369527499      4.1304754942803052        2.03137886916711
    66   4      4.1289516484151898      3.7797693435956954      4.2117532996420906
    67   2      6.0524650908780409      6.1040194467615052      6.2058233697917355
    68   3      6.2191686295411763      6.1214722741457708      3.9818706468788037
    69   3      4.0678287086258393        6.06630321149777      5.9675842740417862
    70   3      6.1672116863224007      4.1570993264663398        5.92861534439011
    71   4      4.2075977711681736      3.6350823747973129      8.0830412792435329
    72   1      6.0670649324335644      6.0639448489819294      10.098938357464149
    73   3      6.1172228745440043      6.0812022016026575      8.0761079028130212
    74   3      4.0145117436483586      5.9207902786983926      10.263650038171805
    75   3      6.2705395437636975      4.0454276400840694      10.184123930256403
    76   4      3.6676700865103671      7.7907215182157055    -0.27276365621115511
    77   2      5.9325927231957643      10.062523691109583      2.0225711680343728
    78   3      6.2995685975470117      10.246286739912163   -0.029677973330936656
    79   3       4.056824521872417      10.239430906932323      1.8767016741202958
    80   3       6.120408234125045      8.1536892136933403      1.9014579093767754
    81   4      3.9941685366278361      8.2735901653317221      4.4897188802620356
    82   1      6.1011016470354971      10.115972813894393      6.1185467157896873
    83   3      6.0601630504572954      10.230293060726556      3.8997462985697493
    84   3      4.0847859406351068      10.243014804868709       5.999946744737775
    85   3      6.0021719035858938      8.0928329801495966      5.8646586998644938
    86   4      3.6410980348241702      8.2286770485609555       8.097541874580175
    87   2       6.061980014197685      9.9681802560419168      10.110838511412174
    88   3      6.2022482385254829      10.251011825165472      8.1611441652054832
    89   3      4.1291643174783754      10.390513230079261      10.087479739052741
    90   3         5.9256894011096      8.0915478878558744      10.221123645878878
    91   4      7.9385250771631943    -0.32322893360534122    -0.16076697357471773
    92   2      10.052855504063762      1.9076324400491032      1.9786688282833433
    93   3      10.170666139900414      1.9738193907790285     0.04699677395424659
    94   3      8.1294574281479957      2.0809664876452443      2.1185547796619209
    95   3      10.266724995811144    0.037642232162609618      2.1246967791127154
    96   4       7.897175123693966    -0.29924838173393881      4.2362150092745017
    97   2      9.9960775220899976      2.0348568674923126      6.0362057211718803
    98   3      10.243986784683608      2.2049587497922847      4.0380866160453568
    99   3      8.1255577667583356      2.0760996189953467      5.9651052652593641
   100   3      10.236861487416602    0.083181329018960679       5.932648302693349
   101   4       7.649597628727463     0.06756104772490848      8.0996866368696736
   102   2      10.057855686355644      1.8980784136397448      10.090540202677831
   103   3      10.249957262038944      1.9947704108808506      8.0580013507359709
   104   3      8.1616892609491725      2.0300416100813234      10.056289268065809
   105   3      10.218248199737175    0.014019190641978731      10.133838181992525
   106   4      7.7485891739129693      4.0459867357408088   -0.034632824725427364
   107   2      10.067741248650297      6.0193605134129609      2.1265246213381288
   108   3      10.142531456023553      6.3571495658722679   -0.050262451603550716
   109   3      8.1759492603630388      6.3016195872666847      1.9611182448965072
   110   3      10.100084539050554      4.1203727178828844      1.8945917177264511
   111   4      7.8125764603545855      3.9143027599156301      4.1667040905511845
   112   1      10.073827205662546      6.0171538118277832      6.0710287102311584
   113   3       10.22727401135112      6.1349960393760909      3.9967697063964613
   114   3      8.0568158646590415      6.3098033658150108      6.0664168918896308
   115   3      10.248988738241247       4.009221006557766      6.1767529190639969
   116   4      7.6955615097927943      3.8548273267524484       8.279304740105518
   117   2       10.18403869941989      5.9384472597796867      10.152634135722515
   118   3      10.164413812068894      6.3323499818985027      8.1224710884224756
   119   3      8.1651953749240818      6.2948603982547606      10.060951747665827
   120   3      10.134502553881431      4.0307128450959189      9.9242412144889318
   121   4      7.8452397820145912      7.8778439759652468    0.014620739707073798
   122   2      10.005185205743468      10.159660922760134      2.0496763696949167
   123   3      10.212060065995157      10.133022867581062     -0.0570235317447522
   124   3       8.131838211298005       10.11978298717921      1.9833229987278918
   125   3      10.372547204617542      8.1701583794220038      1.9996766228551039
   126   4      7.9972910339834806       8.058412933862952      4.4023935698260415
   127   2      10.131328654004371      10.123148609017946      6.2629250104568444
   128   3      10.315321828069663      10.194024404694417      3.9426370222823652
   129   3      8.1451055880645331      10.124204153188622      5.8114419185046495
   130   3      10.145831782586828      8.1822471339312397      5.8535354758345166
   131   4      8.2704043774306673      7.7635419073344867      8.1490703465486511
   132   1      10.150930472742585      10.092169593415743      10.109623121730657
   133   3      9.9329056553336716      10.059805859399695      8.1080951329018198
   134   3      8.0739070955696643      10.010271300984117      10.368447840273671
   135   3      10.149389145556331      8.0765968182323373      10.339809657690996
   136   4    -0.26768621860460923   -0.033160221493261921      11.910914070964886
   137   2      2.0033795549326432      2.1027236920302399      14.254642644749174
   138   3      2.1422166138839542      2.0623380460590974      12.112853907096062
   139   3    0.079953072854101387       2.137263552839908      14.089718627994499
   140   3      2.1178880248733267      0.0232687463946974      13.996487179816581
   141   4     0.16267674083619424    0.011150436334006949      16.577416041912844
   142   1      2.0622595590892412       2.081966355038384      18.212341488401773
   143   3      2.0277721081072162      1.9208914824001739      16.137868802673307
   144   3   -0.015136730589145832      1.9527784346314274      18.062934123649026
   145   3      2.0815867487441695    0.022640915670957554      18.232288403365864
   146   4     0.30289696948421585    -0.29208204935570337      20.111909324762859
   147   2      1.9173312679073946      2.0141680612143054      22.127912525946645
   148   3      1.9514567547168618      2.2253245609698515      20.265069976270198
   149   3    0.055822847290238502      1.8967082618782678      22.413765243897501
   150   3      2.2352986350018846    0.091384627672412441      22.297479547817485
   151   4    -0.16021336625789714      3.7848884880170561      12.132014902539797
   152   1      2.0258786419231627      6.0369414265925361      14.110938562024881
   153   3      1.9744970168929954      6.2742676754466977      12.088504379882295
   154   3   -0.019079207447309336      6.2962966749887475      14.116675750455299
   155   3      2.1877567804328408      4.0142108177833231      14.237666234239388
   156   4    -0.10665225145025638      3.8722966607052749      16.396275646169414
   157   2      2.0232604653605901      6.0896651403328335      18.097845374016728
   158   3      2.0063933026665288      6.2305680544330979      16.199197665049276
   159   3    0.048537361294099149      6.2721971646442967      18.278313752684525
   160   3      1.7419597559516224      4.1302921708336431      18.136224164989397
   161   4     0.21873555400531539      4.1673597692152606      20.005060842813592
   162   1       1.968234439145135      6.0712526942638112      22.209379930452886
   163   3      2.0830360307179578      5.9145846159978479      20.206196781248295
   164   3   -0.060697351650921834      6.1312772477521706      22.405614059386131
   165   3      1.9412993342220179      3.9971775420752684       22.49436085247898
   166   4    0.042771568996235028      7.7597873929969809      12.210144547750676
   167   2      2.0116789197107452      10.105688806201851      14.056353020271333
   168   3      2.2986067413721787       10.18514006168696       12.17118131592964
   169   3    0.074690555705285849      10.217287835013682      14.048803127541978
   170   3      2.1107414456002083      8.1791407367527693      14.229159409518555
   171   4   -0.037818570230970877      7.8069821401435213      15.984131576630629
   172   2      1.8506578009333838      10.191479992247807      18.215230114678086
   173   3      2.0131052042203015      10.169452516203023      16.243882001706698
   174   3  -0.0053511549737595074      9.9952442443733087      18.341416980216604
   175   3      2.1541839571592485      8.1038073878240215        18.3742814935875
   176   4     -0.2829678200192654      8.0681038371273601      19.848243562205862
   177   1      1.9707843844424884      10.147461977925435      22.259142753147508
   178   3      2.2545054095820696      10.116672124448183      20.196742129090349
   179   3   -0.056418382188911508       10.05669226119614      22.267010854035021
   180   3      2.0919222650251599      8.1163878983395605      22.331754782241745
   181   4       3.823492241905265    -0.16020357987118639      12.257579112118853
   182   2      6.0776866968776089      1.9496732852570127      14.144210626035562
   183   3      6.0925579137799222      2.1920773990426081      12.205700843857105
   184   3      4.1039269336344857      2.0390017909178924      14.193678326289874
   185   3      6.2127711908775085    0.052960252019578491      14.163963199575381
   186   4      3.8182718433645406    -0.24701888335570643      16.538028850124036
   187   2       5.916628348208925      2.0309899057737453      18.154107999601809
   188   3      6.1175525999491454      2.1703117060734822       16.23454869225079
   189   3      4.0761832314089119      2.1246166596251883      18.265991345965922
   190   3      6.1189400186906315     0.12205102934604571      18.193499419796215
   191   4      3.7893104887166253    -0.32649949058314426      19.994464379912721
   192   2      5.9379978693544242      2.0275951931485605      22.196950973802561
   193   3      6.1657865918134132       2.041110142819123      20.305115657410276
   194   3      4.0634215699546727      2.2078326563313531      22.364781887764334
   195   3      6.0052861762662966    0.092043152205850784      22.506220506703873
   196   4      4.2900339262889107      3.9202048072774947      11.819255135856849
   197   2      6.0761273488522303      6.1769152704857397      14.019187350675944
   198   3       6.143003542333096      6.0130544594576962      12.164199999285939
   199   3       4.108797830109002      6.1078400096525582      14.326653197023001
   200   3      6.0289593584739904      4.1037531490535057      14.328535143677671
   201   4      4.0608011407125302      4.1750720448894869      15.829689000822984
   202   2      6.0704828089551208      6.1243665417487785      18.166115531636759
   203   3      6.0739654266292247      6.0485404397661666      16.275870254139178
   204   3      4.0456987931337283      5.9279244602723322      18.279801978037266
   205   3      6.1654748634553176       4.076356989662048      18.399623923996174
   206   4       4.038239316923157      4.4968615499160043      20.369611428128493
   207   1      6.0406808182980862      6.0748631952570751       22.32194698101096
   208   3      6.0722913295921064      6.0069469980266659      20.287527260070558
   209   3      4.0368083780089741       5.945641039652533      22.370532778292858
   210   3      6.3044351296047836      3.9947625434734833      22.323389202704622
   211   4      3.8487724332518725      7.9353881348404069      11.889170229826906
   212   1      6.0769917933993796      10.064113467346578      14.168044285280903
   213   3      5.9764704266899598      10.324070600718622      12.129506318475329
   214   3       4.036762412568228      10.156860279170264      14.456608663661502
   215   3      6.0843687049152022      8.0640244696952887      14.302229178756125
   216   4      3.9746407097235443      8.1249738988048943      15.826286933025063
   217   2      5.9556252006955042      10.167263273581206      18.158863740907847
   218   3      6.3005856919522003      10.136490905078315      16.306965770777481
   219   3      4.0791176556637101      10.143186068288509       18.10786089145008
   220   3      6.0593434714705463      8.0970686109580576      18.411824537411952
   221   4      3.5702586239243899      8.1566995968727696      20.385126751986185
   222   2      5.9318289320911584      10.083079022652305      22.290862675137038
   223   3      6.1362623251964132      10.141150123498207      20.331331542995784
   224   3      4.0808612944162812      10.190358710136126      22.379544262472507
   225   3       6.168485708153451       8.173655882258732      22.337595909572951
   226   4      8.3026943274029907     -0.1920631158230493      12.528588307372219
   227   1      10.032728351615702      2.0465479338371142      14.207249093091653
   228   3       10.15406354605468      2.1576119170979973      12.036395989592142
   229   3      8.0243281580322829      2.2265729537948102      14.199624912986039
   230   3      10.122599949710468    0.024269181281730633      14.041024547292588
   231   4      8.0260445496342072    -0.31108304726963487      16.379630076814941
   232   2      9.9733646761555548      2.0526261828075598      18.221667658726552
   233   3      10.237388271430278      1.9689040786916236      16.297866551559384
   234   3      8.1129901517998473      2.0846102405498192      18.312005925078832
   235   3      10.227917721448835     0.11403771131998987      18.402753001294844
   236   4      8.0191568870741516    -0.35395173941554398      20.198626991994125
   237   2      10.009350493122275      1.9581164377264111      22.225167947972778
   238   3      10.189175297552284      2.1946223709074721      20.326977868616158
   239   3      8.1300775664189064       1.949714275187941      22.378847649689209
   240   3      10.329529369785439    0.092299870565129005      22.306888531302391
   241   4        7.86862256233346       3.879488461749911      11.923969381677679
   242   1       10.09934937490509      6.0847575483334229      14.110381915878163
   243   3      10.099925596499748      5.9567964284279684       12.08978804413052
   244   3      8.0476319534388008      6.0424457692201381      14.373306173062494
   245   3      10.246109489381515      4.0614651408175737      14.328172689330897
   246   4      8.1254817961939114      4.0819394753708504      15.786655814442858
   247   1      10.030920639733004      6.0478002873752903      18.276780917440686
   248   3      10.165721191855591      6.1848619268518412      16.248684097005185
   249   3      8.0186663201032609      6.1374391078795991      18.409098374422253
   250   3      10.259720320666744      4.0207374395582534      18.219679435868954
   251   4      7.7607796012947263      4.2144334801676058      20.190970497459325
   252   2      10.036805575295777      5.9259085538469982      22.321358652404314
   253   3      10.314293713727794      6.0080716629390123      20.361592445520891
   254   3      8.1646909932397147      6.1963145964029849      22.229606292558408
   255   3      10.115490030122125      4.0492999452854423      22.484815651195792
   256   4      8.2864245274220885      7.9789635586906398      11.794965881364915
   257   2      10.098591810202823      10.091174226298763      14.072056114085425
   258   3      10.252969100976209      10.218329875291964       12.22191415895615
   259   3      8.1633968509377723      10.240689260692463      14.222436849391881
   260   3      10.051866685885528      8.1587760925357316      14.282994206412258
   261   4      8.2975985919325961      7.8201830561389389       15.96680447533717
   262   2      10.022385129023935      10.028263675117069      18.289580066532622
   263   3      10.040612792477701      10.079081849591937      16.350125793856915
   264   3       8.145155426083754      10.097982841498826      18.466717056488523
   265   3      10.233137103587623      8.1414291241367689      18.446187958677289
   266   4      7.7406689549793608      7.9219901183080461      20.275713905202874
   267   2      10.107552463156495      9.9633825057921239      22.251575607591782
   268   3      10.368462764540331      10.313594575631086      20.283159568243878
   269   3      8.2075220190567979      10.175933335281149      22.203914693724251
   270   3      10.278899935417112      8.1039575921631872      22.126212288443018
   271   4    -0.15161309072488269      11.854296316072119    0.099471176290805749
   272   2      1.9154070377482719      14.220353550087292      2.1451226545908222
   273   3       2.050551972877968      14.237345363181861    0.050503883062900129
   274   3    0.021943742135816045      14.259112970289143      2.1396937908797224
   275   3      2.0954130406280296      12.245145294524622      1.9674346428114589
   276   4    -0.15724517067575988      11.841479646516602      4.0821361630502322
   277   2      1.9596721931668628      14.090397305810871      6.1364517559877427
   278   3      2.1993480209091154       14.22112481581645       4.077565824348202
   279   3     0.08154982267433096      14.278388140620416      6.0349344439174351
   280   3       2.085812272895883      12.210660038758531      6.0770183323648483
   281   4      0.1284102613639774      11.693419959742723      8.1431832241582285
   282   2      1.9676103515500956      14.089271606965703      10.172603135620717
   283   3      2.1557935299788582      14.322586323670157       8.074090491761865
   284   3    0.073336056230208155       14.36719263582021      10.060463278409745
   285   3      2.0173695565643976      12.231492526542853      10.054328130130594
   286   4   -0.016881302960588918      15.851482957216914    -0.32473375093209189
   287   1      1.9683979358103094      18.180913322034723      2.0346465460101184
   288   3      2.1477094971009572      18.390292817829369   -0.032457381123631772
   289   3   -0.059333010191099385      18.463844653608721       1.931378295076698
   290   3      2.1884979700960669      16.162149408690762      1.9691166234761017
   291   4    -0.34724290401273122      16.231971219383528      4.1973291415639125
   292   2      2.0577193664930133        18.1220764220372      6.0864618319583768
   293   3      1.9279814988681347      18.442414224915066      4.1117826228543466
   294   3     0.11408659160745707      18.339266297296692      6.2310198548602749
   295   3      2.1327988127047006      16.213020797153341      6.0013681126049301
   296   4    -0.34810523062978188       16.24406681447865      8.0064943860317861
   297   2      1.9390089944898534      18.219241233057161      10.192502081300278
   298   3      2.2582002195276596      18.277587676981355      8.0848642289206047
   299   3    0.061792856946260015      18.248639459606096      10.042820889723568
   300   3      2.2606470801105703      16.290798465592005      10.086873722418577
   301   4     0.17518148275694817      19.954523760829833    -0.12652857323568842
   302   2      2.0328674371060105      22.208416710865986      1.9512396215930214
   303   3       2.001126383931529      22.440373724611309    0.058097401445741138
   304   3    0.047046090834649709      22.406867258134728      2.2043979116172858
   305   3      2.0529498988201951      20.330418362301863      2.0552766828073938
   306   4   -0.057974163550185642      19.921649527468102      3.8964285483032937
   307   2      1.9174046676871042      22.203562788644689      6.1194231177412428
   308   3      2.1735733666377275      22.342646791561524      4.1427610739588756
   309   3    0.041652258286872898      22.342823971459158      6.1337174752430208
   310   3      2.1566362379878528      20.298407519280243       6.154913479661797
   311   4    -0.25427144152027614      20.014970193510592      7.9480352144983781
   312   1      1.9506128780041199       22.22358128570319      10.130636800117664
   313   3      2.1826226109135431      22.359037521027279      8.0587095650423901
   314   3   -0.041386739349326088      22.468659196845422      10.201064582627495
   315   3      2.2133533832504741      20.204842812784975       10.04960365362048
   316   4      3.5166932709405421      12.172524639341511   -0.093732478038945397
   317   2      6.0292344667983038      14.080313848202474      2.0727125761199141
   318   3      6.3231630786710884      14.135274121184368   -0.055362256227076537
   319   3      4.1264436292944051      14.192088360543655       1.821775750505263
   320   3      6.2261837739581383      12.174254619347666      1.8904388249021615
   321   4      3.9646191104726758      11.895981461784437      4.3615552630876238
   322   2      6.0768762058188397      14.195292243799903      6.2253593985387736
   323   3      6.0435949794635562       14.27273524159178       3.968224687615503
   324   3      4.0875277499082605      14.186409285484954      6.0380413369089387
   325   3      6.2136214245907277      12.223044392788964      5.9622084810652067
   326   4      3.8978573482452683       11.71698425185444      8.0400048472603114
   327   1      6.1029841478265228      14.144092068834921      10.178375732870842
   328   3      6.2486801711040387      14.211754748045035      8.1153086316437832
   329   3      4.0434295522344748      14.339175729897336      10.119170925394002
   330   3      6.4109449843079283      12.150771714928414      10.144105848731369
   331   4      3.6702160305609453      16.086962987525194     0.12930378246665522
   332   2      5.9896028571331899      18.183047976840069      2.0645522051030931
   333   3      6.0046510749095603      18.498192788243131    0.021704424706959959
   334   3      4.0832616809055473      18.370117424390241      2.1058578603679043
   335   3      6.0671031393231232      16.229213230950499      1.7867719594464815
   336   4      4.1731573248252491      16.180390736316127      4.3559050360155798
   337   1      6.0663329829181061      18.176048639009878      6.0860754562134263
   338   3      6.2572406640941143      18.182250134116234      3.9690932683641229
   339   3      4.0346686165510173      18.261555309077341      5.7996723411480362
   340   3       5.975035986620246      16.142657252312716      6.0010686122838974
   341   4      4.0255881134579665      15.992747398950591      8.3718016679859719
   342   2      6.0667100444708888      18.205134720430827      10.074054892439932
   343   3      6.1584969839673436      18.405684220791077      8.1560384070115379
   344   3      4.1559194695146342       18.35424539353313      10.140558975103186
   345   3      6.0745833029050758      16.297768965770338      10.080441183649986
   346   4      4.0007050957989749      19.918136233740746  -0.0010043393259943417
   347   1      6.0335540671650074      22.233920757713012      2.0106628859076894
   348   3      6.2504635519868152      22.226041237176908    -0.03471678257813305
   349   3       3.992951862851394      22.424437647014265      2.0541796858417882
   350   3      6.3082168657363979      20.200869899145935      2.0920452012980366
   351   4      3.8722104407813984      19.976369867675448      4.0634304042672875
   352   2      6.0058758839618305      22.233418077710212      6.0631017565300871
   353   3      6.0415139842281178      22.406537415071682      4.0622616143046741
   354   3       4.080447193303093      22.372991743548003      6.1356337051056302
   355   3      6.1649060590335578      20.268071693303895      5.9545064844029563
   356   4      3.7991367376018812      20.249481587832495      8.2727095819188126
   357   2      6.0542751962390025      22.267222905094425      10.258604218436325
   358   3      6.2576158843038705      22.187729689358523       8.054124519141352
   359   3      4.1634425831697888      22.214480107188358      9.9678951335734443