(written by ASE)

1080 atoms
4 atom types

0.0      24.299999999999997  xlo xhi
0.0      24.299999999999997  ylo yhi
0.0      24.299999999999997  zlo zhi

Atoms # atomic

     1   4   -0.088472569217058553   -0.061073549000082078    -0.35960333729839128
     2   2      2.0083200754027013      2.0554052921678676      1.9210549853492618
     3   3      2.0657848546012265       1.973726598298565    0.061483878194159784
     4   3    0.054153449725591211      2.0501061293470575      2.2763777463884729
     5   3      2.0466887719888289     0.09113932957400725      2.2909707932997661
     6   4   -0.066489592271108761      -0.042892635875557        3.80176061774953
     7   2      2.0409645148067916      1.9000099258673917      6.0573396577579155
     8   3      2.1454380853661057      2.1729846999067446      4.1552307045877743
     9   3    0.099706900105486426      2.0746567034184875      6.1638339521768861
    10   3      2.1112955120052534    0.012513613829860685      6.1482906937576161
    11   4    -0.34600712610066531    0.098637148139662789      8.1147599081579074
    12   2      2.0142527504152294      1.9203283646659361       10.13363357046679
    13   3      2.0972014830602022      2.0384493448173666      8.1551378080573489
    14   3    0.090901828985797392      1.9800348323048538      10.275477984644015
    15   3      2.2238918905361675    0.012762457245000663      10.170746031750472
    16   4     0.23727229912739073      4.4019055015875628    -0.15167345177213026
    17   1      2.0262889731435751      6.0923793306383693       2.087231049120212
    18   3      2.0208635507242563      6.0659890599803878    0.037061205343616926
    19   3   -0.053511911244690458      6.0394267065741492      2.2348334281006021
    20   3      1.9331583058981436       3.994769613652394      2.0979699841655686
    21   4    0.090066554880842115      4.0747734794765798      3.7772088063860236
    22   2      2.0140616313442221      5.9335063122313221      6.0561180201866911
    23   3      1.9791882634125895      6.0401146055380464      4.1524529961485284
    24   3    0.083479737122387321      6.2121794086391455      6.1657502843575411
    25   3      2.0648147391283835       4.070428404481075      6.2467108148097577
    26   4    -0.29145098592722618      3.8611496739981694      8.0178681746856419
    27   2      2.0092465208695813      5.9781234922672617       10.16421234004369
    28   3      2.0670289958775943      6.3202652275266011       8.108109040498185
    29   3    0.067441346043460859      6.2657330926993202      10.115040890438259
    30   3      1.9826597119976237       4.066101576981402      10.121324228609126
    31   4     0.11824140135103647      8.0701000100763611    -0.43026466181468637
    32   2       1.914568610856757       10.03732887861584      2.0455008575664104
    33   3      1.9983852767057531      10.214534477936523    0.097318013774933779
    34   3     0.00284366708213124       10.31178881849427      2.1637167328236857
    35   3      2.0125191315605608      8.1829597875874835      2.1384285708831174
    36   4    -0.10891903734155033      7.7308611111162513      3.9880435691065017
    37   2      2.0184535819966256      10.041786483265783      6.1679515333888224
    38   3      2.0695089149401702      10.401585845871661       4.026073998782226
    39   3     0.06628818427899956      10.330671832988346      6.0064962730803177
    40   3      2.0628675421534237      8.1546630422439943      5.9808040815230363
    41   4    -0.08224234859524443      7.7758049996065308      8.0646737733656249
    42   1      1.9918980680881901       10.08947198674398      10.126896561121379
    43   3      2.0382582839263783      10.187957287964139      8.0465169889264061
    44   3   -0.047858347141962757      10.387579785551189      10.178271725687754
    45   3      2.3018990710137248      8.1067034616899054      10.146452488327618
    46   4       3.899411060924808    -0.23744545734090938    -0.25682260483068209
    47   2      6.0129304826143892      1.9104653354478547        1.98987242743881
    48   3      6.2173265288999433      2.1590503821149576    0.073066210136318394
    49   3      4.0759651389657368      2.1194356246832573       2.139901471901362
    50   3      6.1097645770518776    0.057558009267599845      2.0610545269067209
    51   4      4.0112840190157186    -0.32592579249493098      3.8905531113759513
    52   1      6.0389380710567355      1.9708311698434426      6.0483589173174241
    53   3      6.0775102182044272      2.2266549604203876      3.9969746793657119
    54   3      4.0268853075262356       2.212887464727598      6.1331704443902382
    55   3      6.2980785982552003   -0.039920635496596808      6.1022475605914854
    56   4      3.8761365516909456    -0.26179787302937879      8.2443794160733468
    57   1      6.0771352419507219       1.937938720032045      10.136049086510946
    58   3      6.2179499325984864      2.1087909813752015      8.0713594418681502
    59   3      4.0575520812380752      2.2186580239558489      10.074674776400521
    60   3      6.1817687059462916   -0.077130592409826018      9.9653651034564383
    61   4      3.7732103288420471      4.3534212022277545    -0.22842162181473083
    62   2      5.9308402135444869       6.036091847027933      2.0568368572819438
    63   3      6.2795415702954802      6.0873460003329196    0.067489734425078135
    64   3      4.0820023955570495      6.0776104207791013       1.995942832395865
    65   3      6.2664522967040677      4.1191590468828885      2.0505423536466001
    66   4      4.1245932804607621      3.7553906769159733      4.2024719604181389
    67   2      6.1206999271755311      6.0925639645171952      6.1956840425338831
    68   3      6.1211942587251134      6.1320828655846729      3.9921693489968559
    69   3      4.0500729731028775      6.2519737918456562       6.033470088083142
    70   3       6.085743238182614      4.1603090065354982      5.9619936549499704
    71   4      4.2645191690876061       3.621075504382917      8.1395200651215092
    72   1       6.085377754594159       6.061088758217192      10.112047677935783
    73   3      6.0807912533760637      6.1650153123676095      8.0752117469225535
    74   3      4.0252674287156083      6.0924587527104581      10.123090407591912
    75   3      6.2200694552286855      4.0529404906722126      10.133360834492503
    76   4      3.6517078383433894       7.813236242003442    -0.28231927193291151
    77   2      5.9224657703111312      10.054681600109925      2.0064961090620952
    78   3      6.2664721400633558      10.248661854379179    -0.01123746220238781
    79   3      4.0492051881149411      10.247826961142588      1.9785738541589832
    80   3      6.1216226008996975      8.1474900693546157      1.9320728177616222
    81   4      4.1250147693170192      8.0924951302214829      4.3870392068899573
    82   1       6.039598360127381       10.12185473272967      6.1575454066865722
    83   3      6.1099562415546922       10.25727121383056      3.8964527007557002
    84   3      4.0021524221953246      10.138805530494452      5.8707864613310177
    85   3      6.0482146677940722      8.1106869807567694      5.8249073241179978
    86   4      3.9290970931517455      7.8853951108625759      8.3700994145454466
    87   2      5.9929640752520257      10.023183850310385      10.154846691956786
    88   3      6.2457520210261031      10.172420331316154      8.1668015341519915
    89   3      4.0861836795728932      10.295180099207135      10.055836162603562
    90   3       5.991201355434673      8.1064198434251615      10.195730690919524
    91   4      7.9339706319839776    -0.30709070724730331    -0.18218696730229139
    92   2       10.05900378712192      1.9123361768410736      1.9594328162681143
    93   3      10.106792617642736      1.9539751579239371     0.04838194629808628
    94   3      8.1325209911798666      2.0954780811537685      2.2061015131207018
    95   3      10.255811827673048    0.044323500431588836      2.1508933744528003
    96   4      7.8460877212506235    -0.26555732536297327      4.2115083809724423
    97   2      10.016647869074397      2.0684280706163771      6.0007617120382379
    98   3      10.286468726748234      2.2158954272914819        4.05453165641502
    99   3      8.1374959108014639      2.0971849163801153      5.9446556768992824
   100   3      10.240857778380086    0.081854220341709402      5.9640529428092339
   101   4      7.6756630055570367     0.14587774019414815      8.0321485202850553
   102   2      10.063877412537737      1.8757155089297906      10.096214459036771
   103   3      10.185348122093943      1.9699904775145689      8.0747470291770949
   104   3      8.1608714578519823      2.1427524210130193      10.116795258746551
   105   3      10.097119498401655    0.016864324785078343      10.196481058433541
   106   4       7.765961012398094      4.0496782785831451   -0.060960699791282318
   107   2      10.056851319607031      6.0235002253213334      2.1393298917915344
   108   3      10.123578501352588      6.3587550555265668   -0.040185223338348883
   109   3       8.160785598108129      6.2778574208293474       2.011073958518292
   110   3         10.102266555977      4.1179791732206663      1.9061719110770348
   111   4       7.815540646041014      3.8834511140091381      4.1209614532667329
   112   1       10.07994688351412      6.0297503496914855      6.0826334321776292
   113   3      10.257230459382852       6.102769859642672       4.004821119569435
   114   3      8.0525580075747989      6.2532656576112942      6.0367265273734745
   115   3      10.269575759120567       4.014547647262928         6.2227037311997
   116   4       7.747230399102965      3.8506988562651814      8.3245464725814067
   117   2      10.171642478383445      5.9482077149755517      10.163725995650337
   118   3      10.158831291370877      6.3646491511082894      8.1293603629311821
   119   3      8.1622095477367527       6.263336555681386      10.081129919672048
   120   3      10.187588336248121      4.0459969893405212      9.9080337073860605
   121   4      7.8436695929079985      7.8870247580286312   -0.014740780197748932
   122   2      10.001524084769075      10.148800799230189      2.0378289216777183
   123   3       10.24061270121166      10.130010687176044   -0.040542675587395306
   124   3      8.1293563420342672      10.145145346937664      1.9698494640197353
   125   3      10.339918542954573      8.1651371566712498      2.0213195457168083
   126   4      8.0010070576282502      8.1220899995340918      4.3969824759322202
   127   2      10.146025639681714      10.117126058862405       6.240896042446586
   128   3      10.272529411235976      10.226185021673478      3.9521194967462603
   129   3      8.1407051805040851      10.198752621479064      5.8420537217196911
   130   3      10.069437622994492      8.1788354670909378      5.8110572558075395
   131   4      8.2808283732406345      7.8400792988462138      8.2228147820776449
   132   1      10.162014953396683      10.096796593660288      10.105200761550581
   133   3      9.9364494994648318      10.016850235967325      8.0968815497375299
   134   3      8.1043354994197152      10.134165232562633      10.280847233793921
   135   3      10.099774236874703      8.0859787838318642      10.353427045448935
   136   4    -0.24196142787234595   -0.072083235753101604      11.887871606387126
   137   2      2.0055924772162443      2.0874841173731187      14.233571130725279
   138   3      2.2570374181372985      2.0658252759050177      12.126066898569785
   139   3    0.083953443805803579      2.1220762562688602      14.038350943492601
   140   3      2.1615771539958057    0.011182686959177221      13.993997550256456
   141   4     0.23345310043596651  -0.0016124319888361053      16.570182136669011
   142   1       2.080680848398726      2.0737299663414426      18.204185908549906
   143   3      1.9732320587183705      1.9049415375478029      16.129173663560731
   144   3   0.0047365943085729825      2.0281307813263174      18.166142746721629
   145   3      2.0525165021868346    0.014523719514226693      18.234114837009894
   146   4     0.31525063761291278    -0.28521700686912632      20.074336843261221
   147   2      1.9282137612386445      2.0310284230739071      22.115044209594164
   148   3       2.028789598626191      2.1783768830633048      20.259170100876354
   149   3    0.057503626013691266      1.9381568986442361      22.350549307805032
   150   3       2.203173323860713    0.096875361914443459      22.335424738461636
   151   4    -0.20110097997876716      3.7767614200694375      12.114458983233995
   152   1      2.0182078442324931       6.019450569676529      14.137221562742573
   153   3      2.0517956959740604      6.2254674102210794      12.104381863134726
   154   3   -0.014850806974797863      6.2674016094601264      14.131057344800842
   155   3      2.1888930228540522      4.0066785991570422      14.258686826016994
   156   4    -0.14040444298369376      3.8576712228470673      16.362133874210613
   157   2      1.9772527678485392      6.0300094078995716      18.137483590416306
   158   3       2.006079025830418      6.2695447795817056      16.227847402806681
   159   3    0.052195910215915797      6.2550399295444556       18.32271042043363
   160   3      1.8286645724383226       4.123812143073418      18.163992304410026
   161   4   -0.035145951250321716      3.9305811885548003      19.927716661428747
   162   1      1.9592662203895685      6.0863107749139767      22.192624650116329
   163   3      2.2182269531874628      6.0715830898265724      20.193480066266492
   164   3   -0.053040586971786839      6.1503731906453902      22.399173282098847
   165   3      1.9727110508455554      4.0114821593257801       22.47745120553466
   166   4   -0.012934676452300982      7.7999296478906635       12.27994226740411
   167   2      2.1189632509395642      10.088149385724126      14.074314181045947
   168   3      2.1536286375763161       10.26385381189959       12.16861005568261
   169   3    0.090104176871011424      10.300137641380941      14.108684354567258
   170   3      2.0344027058768592      8.1613357963706132      14.208143901021515
   171   4   -0.026220240964342265      7.8331021832031178      15.966967058711935
   172   2      1.8585139545991536       10.14423192922713       18.22753694213587
   173   3      2.0114853965566826      10.191239079706335      16.229438356532945
   174   3   -0.004399641216923043      10.076362411424594      18.286468009444445
   175   3      2.1453066430122716      8.1411214746941702      18.338740918576672
   176   4    -0.26653873195405581      8.0660691226472725      19.860155013410253
   177   1      1.9913259554061757      10.143366126417723      22.243398076066846
   178   3      2.1482239663205243      10.183882034189462      20.198374694760847
   179   3    -0.06278030824904203      10.072138260365303      22.408756080453109
   180   3      2.1001947225983177      8.1241323903473539      22.324612579257391
   181   4      3.7935040145758463    -0.15963383173814791      12.208209955695754
   182   2      6.0870734111115112       1.914003840127656      14.129956330822354
   183   3      6.0414838376961759      2.2314680788017749      12.202917967504671
   184   3      4.1166344818563552      2.0982798838795444      14.260727915620931
   185   3      6.1245781712722369    0.032616756781171763       14.12355365560181
   186   4      3.8553785731249577    -0.28142852847504352       16.51310683881599
   187   2      5.9356178694771051      2.0142589873587791      18.134747924481328
   188   3      6.1801885717121268      2.1250512246496354      16.224561221286251
   189   3      4.0924164552669433      2.0934247291777544      18.196044354496991
   190   3      6.1547473559684134     0.11725136871740807      18.252814862526044
   191   4      3.7919775141299068    -0.33221104717363692      19.993594509233461
   192   2      5.9395098910768418      2.0416181612055841      22.183622418339688
   193   3          6.118295992607      2.0674653783406791      20.298231388008706
   194   3      4.0661011467426391      2.1895887886312684      22.418269888832508
   195   3      6.0149782487218673    0.099653010375680667      22.490393035267804
   196   4      4.2407574613506132      3.8590586902314192      11.814108561033507
   197   2      6.0770776556098545       6.168800001640367      14.012132689874159
   198   3      6.0872645172281592      6.0250752041709443      12.155429048597151
   199   3      4.1112390825663221      6.1383938374106446      14.362583330801371
   200   3      6.0370655390415413       4.114664300301353      14.353737087426829
   201   4      4.0559181065131682      4.1285031676067918      15.825650137262961
   202   2      6.0420219482709658      6.0993067156923093      18.158982441565101
   203   3      6.1526254865515355      6.0932619867351079      16.272975265026439
   204   3      4.0696562868880202      5.9997955400782157      18.223166240869443
   205   3      6.1558980790843636      4.0804605775661784       18.36157362370674
   206   4      4.0197427382842328      4.5153803234938765      20.390869625737974
   207   1       6.045440523126036      6.0844053368948634       22.31694481532638
   208   3      6.0489203864949479      6.0106612335950098      20.285548344650771
   209   3      4.0434140574518187      5.9583348220439198      22.391159130726315
   210   3      6.2859703363635671      3.9966467007984665      22.355966182780271
   211   4      3.8478570322989998      7.9078571119042413      11.916748524291162
   212   1      6.0536807683048863      10.075575247724464      14.157080645888579
   213   3      6.0992315496332381      10.253056477716019      12.121249851735076
   214   3      4.0327518293448135      10.046199296941195      14.392576810809318
   215   3      6.1515314574917239      8.0581760072977868      14.306642086549811
   216   4      3.9435904907631367      8.0552769766292194      15.884688602156048
   217   2      5.9726439796974375      10.142576890911576      18.123796409971554
   218   3       6.270213130385625      10.129965044090445      16.290158892237443
   219   3      4.0922594852288352      10.115535675535277      18.183484002830266
   220   3      6.1322346376253813      8.1039503227525227      18.401977141490601
   221   4      3.5644167285351767      8.1427902347795467      20.361436752573937
   222   2      5.9243371170066315      10.081233703544866      22.265296580975932
   223   3      6.1828523223590963      10.132268360838909      20.342736418342874
   224   3      4.0779894672318138      10.216530962761663      22.387282381470598
   225   3      6.1618502591836624      8.1785556524637038       22.37649169147441
   226   4      8.4449760339384063     -0.3214929043701627       12.43853312428276
   227   1      10.028755298927186      2.0318440784279694       14.19570025766766
   228   3      10.201545382302214       2.163099998421214      12.048227074394006
   229   3      8.0205944057689322      2.2145429668414218      14.149554350029232
   230   3      10.167650024201519  0.00058527334297495614      14.021800904857143
   231   4      8.0477510792790703    -0.34870775881322458      16.264311924521731
   232   2      9.9750601456683405      2.0287947779170694      18.199995307632065
   233   3      10.184311159292292      1.9009943852651727      16.290518114192281
   234   3      8.1170919552287053      2.1299125955228724      18.363453520396206
   235   3      10.158053192340288    0.093804937630508137      18.483179335052174
   236   4      7.9629575789339588    -0.32583844389639122      20.149900322574872
   237   2       10.01032520515478      1.9583948455883127      22.201321030716056
   238   3      10.219953328795553      2.2178488892794754      20.324015648844796
   239   3      8.1261981103294403      1.9578571880288727      22.342129595342648
   240   3      10.320534134658848    0.090020137906848069      22.279993957938945
   241   4      7.8615382870243238      3.8625914402039707      11.930322524533707
   242   1      10.090335659388099      6.0932203842650656      14.108685867858309
   243   3      10.132496815142309      5.9326249877141173      12.093217404823147
   244   3      8.0537110835792198      6.0311970129923402      14.337798095508402
   245   3      10.240601134771131      4.0536607825564532      14.326139664506748
   246   4      8.1147660778580715      4.0887719949703163      15.768331914708535
   247   1      10.030036923135627      6.0482963230164755      18.268359125371855
   248   3      10.166556433463951      6.1802621553760426      16.239759579958349
   249   3      8.0306294226061219      6.0997757012841136      18.478721257931305
   250   3      10.296097020465416      4.0032118201651095       18.20157529163232
   251   4       7.788391418226813      4.2322130465718066      20.138021138440482
   252   2      10.041505735496388      5.9229951472687512      22.322159379340448
   253   3      10.321858477645536      5.9940744617931649      20.367192113287082
   254   3      8.1647883448437302      6.1905604985544489      22.231599470380097
   255   3      10.114976746377854      4.0460817654797365      22.502933718062334
   256   4      8.2270614582512351      8.0514233351226583      11.781909165469447
   257   2       10.09491713766025      10.099460601165541      14.070924941056234
   258   3       10.24173969347402      10.256436989123888      12.215210095656406
   259   3      8.1701996425675443      10.280463417578412      14.231023890862618
   260   3      10.025345824915568       8.170172685430515      14.248698094169232
   261   4      8.2360359446767859      7.8425744826001642      15.927970566226136
   262   2       10.02192723642513      10.040581833253547      18.269584436542338
   263   3       10.11864408325615      10.086750801009664      16.340871454557242
   264   3      8.1450049364714445      10.162447087817243      18.418612307979405
   265   3      10.178311534690927      8.1528064387963148      18.466222877910607
   266   4      7.7794776163347219      7.8871760777236455      20.215489501550124
   267   2      10.104289081611148      9.9648713845692658      22.238386716597315
   268   3      10.313802304984247      10.328835278670953      20.292649831063795
   269   3       8.206633067388406      10.191895752539748      22.293219046939036
   270   3      10.258197278976031      8.1041728921177327      22.138783696184053
   271   4    0.055445903661264929      12.032376898082978    -0.27353850926887141
   272   2      1.9176504429374581      14.212290640785765      2.1357573437412736
   273   3      2.0313879724435711      14.280303923885647    0.047806628297190644
   274   3    0.016534887144787892       14.23097909186127      2.1531164127548754
   275   3      2.1234494466917595      12.253569516146088      1.9292372544162306
   276   4    -0.13281839204579041      11.938292409414238      4.0901039258074787
   277   2      1.9665512858986411      14.105188317145755      6.1412963806180327
   278   3      2.2197383968961808      14.183878120117512      4.0599219346232784
   279   3    0.075885587042329367      14.177669085419499      6.0056331107995202
   280   3      2.2043752370300114       12.20659483720015      6.0936066016134038
   281   4     0.16856120715149436      12.034303213998799       8.502988775875588
   282   1      1.9368414947535655      14.221080428899027      10.149564407917625
   283   3      2.1495627005806397      14.311721088072996      8.0271984067895978
   284   3   -0.068040538821963051      14.142701117485537      10.010832466208342
   285   3      2.1507678754282815      12.195437093387065      10.012060515195417
   286   4  -0.0038694642553850564      15.874043668998974     -0.3212294161666755
   287   1      1.9594419320004004      18.186326549065981      2.0412478456997265
   288   3      2.1439617397487658      18.369471009233123   -0.033620019835842015
   289   3   -0.069242428435712045      18.471585166157251      1.9277109561371848
   290   3      2.1657571465069032      16.166627767577033      1.9810997651046292
   291   4    -0.33449128691407481      16.211668345855372      4.1783050171979248
   292   2      2.0523058553811837      18.110882992242832      6.0873009557823003
   293   3      1.9136277710833081      18.453023238185896      4.1129110143837826
   294   3     0.11527913534678737      18.395968698064163       6.226377386072933
   295   3      2.0393852899519742      16.205108694783153      5.9651614627622003
   296   4    -0.34082144055249858      16.205372788489747      8.0657695293267135
   297   2      1.9431296930310151      18.188321114279894      10.176026044845647
   298   3      2.2559102002974805       18.27088785488915      8.0837490124125306
   299   3    0.064794349303878271      18.309712308554634      10.022720924328333
   300   3      2.1842323718678802       16.26724905683929      10.119688310985309
   301   4     0.17003867801716832      19.959166789455281     -0.1317185472470114
   302   2      2.0270916910786498      22.202293513967891      1.9536307500075658
   303   3      1.9971185470509072      22.448474395398122    0.063276708332864431
   304   3    0.041375783469325002      22.401817451040316      2.2047240307566751
   305   3      2.0574334197614355      20.329442946645088      2.0316370761782601
   306   4   -0.064591154521946442      19.903786951286456      3.9321347959514434
   307   2      1.9239233524945138      22.183341869510091       6.113316403803867
   308   3      2.1680624315769097      22.348542423645998      4.1458746404478459
   309   3    0.050685107879249444      22.290590890596924      6.1249805398291679
   310   3      2.2290061666969252      20.289173788900769      6.1474476599264785
   311   4    -0.27333695736209901      20.033860668652771      7.9232612645387341
   312   1      1.9509732623352412      22.215253844604167      10.129216968293976
   313   3      2.2050738997631751      22.324639214841902      8.0633614525519413
   314   3   -0.046728584888815081      22.372708145682797      10.276128133650491
   315   3      2.3182849633204419      20.193593647743697      10.067338203566267
   316   4      3.5687543182118842      12.146019534570966    -0.11821020977104482
   317   2       6.033315470920054      14.072940888081723      2.0406866026780421
   318   3      6.3172055482546829      14.149907034483006   -0.061096087403836173
   319   3      4.1252604012640584      14.220094996308431      1.8078719647851818
   320   3      6.1979094426198182      12.171675815131826      1.8849219968591415
   321   4      4.0107166820656648      11.955862334597525      4.2988466541905987
   322   2      6.0742411634580735      14.176002377156349       6.211751527449537
   323   3      6.0523429628437286      14.225205926088321      3.9452996401500151
   324   3       4.089166308163934       14.28640296474596      6.0171270049680086
   325   3      6.0845584445847383      12.213860251057909      5.9153773866059112
   326   4      3.8818744666157219      12.184423053154177      8.4905800320245479
   327   1      6.1227190584309588      14.138795458206413      10.153522299932353
   328   3      6.2387807467932817      14.253246943092535      8.0933897321889372
   329   3       4.105332087380666      14.290578718086254      10.096703163007284
   330   3      6.2872071341512754      12.139905026869583      10.091442930122358
   331   4      3.6562695731976587      16.104605936983344     0.14704161542392624
   332   2      5.9754909516924286      18.176638217502532      2.0353791913863266
   333   3      6.0017996155793689      18.498011591874508    0.013736960373855628
   334   3      4.0721252572066859      18.354952750483015      2.0858202722935135
   335   3      6.0886753183849747      16.233671325878184      1.7967279641960245
   336   4      4.1945679480971059      16.169668560344103       4.333174838761197
   337   1      6.0831529612826252      18.179638183945563      6.0765729888747373
   338   3      6.2503980417094711      18.206373050588866      3.9443321821307373
   339   3      4.0302260841153386      18.177913938801321      5.7769921538847333
   340   3      6.0869290545989125      16.124662564364851      5.8896299139761492
   341   4      3.9542118695796558      15.949417846432249      8.4133161789184925
   342   2      6.0738746528727008      18.239123933192129      9.9531736559181745
   343   3      6.1124865357900067      18.197051303198869      8.1098618912745284
   344   3      4.1478103086247842      18.162332621587908      10.185946508128829
   345   3      6.2488455076590581      16.286360998474962      10.215803890298439
   346   4      3.9842010853307679      19.924589974980389   -0.005159322530669223
   347   1      6.0290557246033956      22.239835846973673      2.0073093031376983
   348   3      6.2428478838533055      22.251101888466465   -0.031800271255489954
   349   3      3.9867445997585005      22.448230840864962      2.0658602478509107
   350   3      6.2841769151723614      20.213259374459106      2.0739735155223382
   351   4      3.9008313017785667      19.947657451657125      4.0870339002821083
   352   2      5.9958577599341707      22.191141597588938      6.0626654616821831
   353   3      6.0722235809968197      22.430795582891811      4.0696719204298804
   354   3      4.0829290331134516       22.45129211186039       6.140442574323778
   355   3      6.0178226375056116      20.270903585611091      5.8575218701074876
   356   4      3.8369169201037483      20.286594104944342      8.2905113864382152
   357   2      6.0884501236492943      22.317940479806222       10.23803684033304
   358   3      6.2407615231074498      22.210638017424568        8.06051429591008
   359   3      4.1601845021542347      22.292551101813331      9.9674634675747598