(written by ASE)

1080 atoms
4 atom types

0.0      24.299999999999997  xlo xhi
0.0      24.299999999999997  ylo yhi
0.0      24.299999999999997  zlo zhi

Atoms # atomic

     1   4   0.0007073055739228657    -0.06016141180108911     -0.3541136119122254
     2   2      2.0921695409121539      2.0836769833997537       1.958482464754949
     3   3      1.9428344502781421      1.8820564557194377    0.069339228764375677
     4   3   0.0039182086903739302      2.0135932577737874      2.3200038785379689
     5   3      1.9877164215952769    0.061427602413692675      2.3122372987114299
     6   4    0.059310363719869606   -0.033160762127483305      3.7979853114549162
     7   1      1.9942652662872973      1.9827798979092455      6.0822377025223178
     8   3      2.0961227172654255      2.2469031016682113      4.0590196775925147
     9   3   -0.023980464559645479      2.2728102472575142       6.019172941306957
    10   3      2.1017891969260334   -0.050786518787231665      6.0997598141254841
    11   4    -0.27336997209775482    0.022806363358062232      8.1810001247478521
    12   2      2.0353210970776114      1.8806744004134093      10.095370617575016
    13   3      1.8648803636067801      1.9770843875903743      8.1842770890915588
    14   3    0.091239236914288785      2.0807540147085981      10.383861266938293
    15   3       2.047263534187159  -0.0017471309662919754       10.34222201262175
    16   4     0.29471970547181647      4.3452021479120368   -0.077747001666615967
    17   1      2.0079759763596337      6.0821998005298994      2.0838764513060033
    18   3       1.983701461998755      6.1580920912072354    0.030824225928250387
    19   3   -0.089350628874935778      6.1925611177358375      2.1215239355843689
    20   3      1.8785916077873377       4.013997513844056      1.9137017840872634
    21   4     0.18294064234526269      3.7469507516736376      4.0194750473448826
    22   2      2.0314555942795067      5.9346082364923074      6.0587962833830806
    23   3      1.8976590753134044      6.0634337823487714      4.1547080319598564
    24   3    0.050903740096533347      6.1783960203262431       6.261531610885462
    25   3      2.1015846641116003       4.089433967930149      6.2604633280629391
    26   4   -0.052268749557749093      3.6955088601588604      8.0106800331118588
    27   2      2.0068942277705095      5.9901632872130817      10.166953065803844
    28   3      2.0885396593232128      6.3603458768945176      8.0938193255729534
    29   3    0.063000133744581882      6.1973358732759145       10.02451018205789
    30   3      2.0640595553253149      4.0884608710183139      10.059707645844336
    31   4     0.19008631946032609      8.0030272555828166    -0.40226293781003108
    32   2      1.9106662928466203      10.061853259494772      2.0040778906584196
    33   3      2.1354808945010872      10.126593834385927     0.10232025947370457
    34   3 -0.00050699959942054939      10.281900932537551      2.1153611675797896
    35   3      1.9997914477708356      8.2070752812773389      2.2351574986190705
    36   4    0.030100308738901599      7.7829847727989012      3.8970615000153659
    37   2      2.0156088815637907      10.054625527029552      6.1194864524107091
    38   3      1.9812657634168438       10.48460186679146      4.0443699475227994
    39   3    0.071488978260396269      10.390623518356366      6.0911159668512296
    40   3      1.9926888074409337      8.1770509466713381      5.9507113776245699
    41   4 -0.00025419934401840299      7.8442403914833623      8.1592158117853106
    42   1      2.0055958598030479       10.11813341619607      10.112042693949537
    43   3       2.154038059739305      10.209904860921473      8.0209720763587242
    44   3    -0.02786894411729067      10.478163993358566       10.10079707039859
    45   3      2.1677295079560399      8.1203515081897208      10.157695906920846
    46   4      3.8982333525720563    -0.22078343039431519    -0.25726407989493205
    47   2      6.1136331170338849      1.9151458758381479      1.9690999782623406
    48   3      6.2063933157247773      2.1726491211300516    0.055063431435608073
    49   3      4.0527313768361806      2.0905628476763227      2.0689339407766485
    50   3      6.0750816970816333    0.041508840215579032      2.0669530466091768
    51   4      3.9228014594252074    -0.24121821474755423      3.8738669949480182
    52   1      6.0592616685454086      1.9810417311827679      6.0542322234035177
    53   3      5.9768893303253696      2.1733621492916542      4.0239450235241296
    54   3      4.0413171935900252      2.0752952048170603      6.2518510594427399
    55   3      6.1019204838090015    -0.05542352115961266      6.3238910898132028
    56   4      4.0359390727494011     0.11785479113080662       7.675863869210283
    57   1      6.0672870339342158      1.9451909619905214      10.135507267891112
    58   3       6.251628824056624      2.1164474796130528      8.0932674590225986
    59   3       4.025712811627149      2.1550921745420069      10.019118411126792
    60   3      6.2614804938141866   -0.065429200208321048      9.9735989573465176
    61   4      3.8160915053029463      4.3333065891852138    -0.23804568236311749
    62   2      5.9071070030408137      6.0258382497801284      2.0620997935665444
    63   3      6.2851110420219252      6.0723249311334468    0.088215655459103634
    64   3      4.0630503049442011      6.1145048131052135      1.9903169978371251
    65   3      6.2203884998939536      4.1170867047726549      2.0828077311324598
    66   4      4.0521373528836016      3.6119294439268894      4.3049359303726122
    67   2      6.1465355639533863      6.0829727874995969      6.1924169909169109
    68   3      6.0918200908524209      6.2147838414612941      3.9956774272496465
    69   3      4.0203994639951359      6.2894765610327692       6.027298422437287
    70   3      6.0305709257942821      4.1542354660808911      5.9770751822226353
    71   4      4.2335101322108564      3.6305710036321388      8.0390045054659485
    72   1      6.0717029496438668      6.0695050813516271      10.104961604463018
    73   3      6.0425835098748006      6.1313871448199775      8.0648044441361844
    74   3      4.0314186820875673      6.2390779854761718      10.120784950593382
    75   3      6.1557465706705603      4.0570021458341872      10.175575819556538
    76   4      3.6714634304067566      7.8117977744152149    -0.30463374074751604
    77   2      5.9462802216551189      10.075891333219063      2.0130142731148051
    78   3      6.1492459388615517      10.331235338794171    0.022227100981093317
    79   3      4.0676981448439484       10.25948124976119      2.1546864362761293
    80   3      6.1361600987588547      8.1639324996861813      1.9162380931182268
    81   4      4.1449716427145455      8.0648826859274418      4.3657670753592823
    82   1      6.0322908435946712      10.135814301873671      6.1223108177830721
    83   3      6.2699882169611003      10.182210199161961       3.922670524659893
    84   3      3.9990364156380127      10.136729891927152       5.786514632098978
    85   3      6.0634166026452698      8.1137159316619503       5.861772326859267
    86   4       3.935708642098048      7.9036429325666262      8.3559037674332437
    87   2      6.0438103524051545      10.019807007691995      10.147556400308385
    88   3      6.0787443067796563      10.317496014343243      8.1338934664580389
    89   3      4.0991724209390314      10.146255873614745      10.155926467270941
    90   3      6.2140242077721384      8.1191350982279964      10.055723435212803
    91   4      7.9451017138326225    -0.32476753232658162      -0.177599034255706
    92   1      10.051483020174624      1.9902748642814703      2.0275314524743457
    93   3      10.196316258570082      1.9199056499926963    -0.05009374044322687
    94   3      8.0362742989025868       2.016907383928217      2.3020352186452913
    95   3      10.334688942966068   -0.040255814566736818        2.14640300783782
    96   4      7.8847970684275639    -0.15591805421959554       3.863068710964368
    97   2      10.003382295972012      2.0063788177376729      6.0263782388100582
    98   3      10.367924296308889      2.1230215530166898      4.0985099402145151
    99   3      8.1243935143667212      2.0672707565631061      5.9201988534860286
   100   3      10.240112196679034    0.061479994994269108      5.9936725168251472
   101   4       7.726530289905102     0.16200961318217297      8.0055750448117582
   102   2       10.07338274949516      1.8627306082059698      10.108654785026557
   103   3      10.113035672567603      2.0592798656925551      8.0715151427119753
   104   3      8.1727059212174158      2.2209141955672878      10.166868817232299
   105   3      10.005850508528859    0.010313471118152229       10.15230464267915
   106   4      7.7580708441040906      4.0559272163935285    -0.11634274139292561
   107   2      10.041012225740992      5.9883109386152187      2.0837422239003942
   108   3      10.134690198814353      6.2928116933811813    0.012947896252055849
   109   3       8.153166918401773      6.2417283835990025       2.082262318964887
   110   3      10.177740467157262      4.0850140448457539      1.9370710563327911
   111   4      7.7979133760571919      3.7915055839962064      4.0684810953111992
   112   1      10.067258481696129      6.0501191470860141      6.0903314965932811
   113   3      10.333972889927685      6.0440986212572243      3.9917025279292964
   114   3      8.0524850453373293      6.2032579577622045      5.9972741164229575
   115   3      10.356470499000322      4.0169842981846635      6.0912144322559083
   116   4      7.7304014296994099       3.884477596297256      8.3800429801168299
   117   2      10.174225790152102       5.934327397804628      10.155066253629432
   118   3      10.194978738440135      6.2853346777154835      8.1278760431732628
   119   3      8.1603355726999265      6.1152106095535679      10.043460504433236
   120   3      10.290659379808616      4.0397476350172417      9.9964433373012582
   121   4      7.8314401761982078      7.9145663823286512   -0.030199530301576218
   122   2      10.068928209785559      10.076300464567408      2.0427555846867387
   123   3      10.290669399257514      10.210101505365806      -0.013172156137704
   124   3      8.1542955291619581      10.185735981863793      1.8768693600185404
   125   3       10.29605951617906      8.1684750205305985      2.0622552851346878
   126   4      7.9230594316417333       8.088539947361955      4.3560213436860025
   127   2      10.136730831426187      10.064107090188765      6.1938484462195342
   128   3      10.131796511335983      10.353035013354049      3.9652723803500778
   129   3      8.1682384732016509      10.266291504030383      5.9605845374419584
   130   3      10.115683831035133      8.1757421715236323      5.8225688012167787
   131   4      8.3095588123585102      7.8819302738417463      8.3663425229893118
   132   1       10.13584860266551      10.123994523782519      10.095278675083389
   133   3       10.13173207794175      10.065232924668297      8.0591075901980691
   134   3      8.1012728987105564      10.371098318737744      10.052422032731135
   135   3      9.9367839908209898      8.1006478137338433      10.240619332305263
   136   4    -0.13047645254556481    -0.13229624145380445      11.873654159627172
   137   2      2.0198933409309832      2.0709910961698927      14.180643234459424
   138   3      2.3008411495868226      2.1981061716234747      12.141331897732867
   139   3    0.078566337855069113      2.1612663535273313      13.958610207877831
   140   3      2.0963741663149285    0.031364636195585875      13.922664189384189
   141   4     0.31990062327872004    0.016544694338064738      16.468742683557732
   142   1      2.0858158446856701      2.0719148538632477      18.197086216063166
   143   3      1.8566361312704465      1.8764111770721348      16.107571305355364
   144   3    0.019707688804927938      2.1739742725341755      18.250614830042689
   145   3       1.929969315702444    0.028230364854774776      18.306578486755328
   146   4     0.33883439221676886    -0.25136056228151815      19.991635140177145
   147   2      1.9237265856223016      2.0324931126870842      22.124626009210509
   148   3      2.0708604336893242      2.2445186144627911      20.276829518228968
   149   3    0.044958218393209771      1.9768452353806985      22.283059634199979
   150   3      2.1519427515776099    0.084762696475565308      22.309437239717152
   151   4    -0.15022714838332107      3.7742987823304102      12.083013139720363
   152   1      2.0139241776739909      6.0267649881134657      14.138381358390657
   153   3      2.0467101396229501      6.1746633639526252      12.095434095119925
   154   3   -0.018360971361374084      6.2676475940813683       14.16208265899891
   155   3      2.1822393867255068      4.0154800320181749       14.33834525029863
   156   4    -0.10255921921553619      3.8231063056463968      16.324008946364451
   157   2      1.9803345937980956      6.0047189657866991      18.139911315925922
   158   3      2.0308815330764367      6.3619695791653026      16.241002193506191
   159   3    0.057093312964370785      6.1613112139435033      18.316736342364642
   160   3      1.9970807516693965      4.1233811376816991      18.072276147368626
   161   4   -0.098209233491237349       3.888208982206272      19.946082505526828
   162   1      1.9531305583319323      6.0684189960016139      22.192100073963147
   163   3      2.2149055428034372      6.0282163497701262      20.195493160459463
   164   3   -0.069510447095600544      6.1484000107914625      22.410348131504513
   165   3      1.9851287325375471      4.0083777464145882      22.562408122232565
   166   4    -0.04132164905182463      7.8280822520686195      12.284921385429278
   167   2       2.138691152345721       10.13077221271924      14.040325825884048
   168   3      1.9998177723392419       10.34547594470232      12.157672062923814
   169   3    0.076354876858925114      10.265833043270305      14.243399583692247
   170   3      2.0067161784285883      8.1823115748937063      14.153906164069689
   171   4    0.022688796534301201      7.9049862899820234      15.906138315586627
   172   2      1.8763401622997791      10.142304983501536      18.198507283075056
   173   3      2.1785779630588515       10.05364633217637      16.254115922197634
   174   3    0.012921427927127568      10.145412635018319      18.187937683452446
   175   3      2.0503516964363278      8.1523560614473656        18.4512981425225
   176   4    -0.22667528723262684      8.0309459259607667      19.834455522664957
   177   1      1.9886010468269766      10.135761953504941      22.244751425421175
   178   3      2.0225787688567896      10.314303697018209      20.212071896694844
   179   3   -0.062761973886370573      10.141492295746685      22.467558645157474
   180   3      2.0877468630963958      8.1247857882516143      22.295442833527936
   181   4      3.8117253259346606    -0.22348079184525285      12.120779714501333
   182   2      6.0775969225761237       1.926103701693523      14.125406853105927
   183   3      5.9762808695466934      2.1896660019157141      12.200836174353579
   184   3      4.1011980131890446      2.0821764050920901      14.345579417350526
   185   3      6.1515992186402437    0.050447777408471901      14.167267309499536
   186   4       4.030636634907693    -0.35710617530365829      16.398253416128789
   187   2      5.9313511210574497      2.0139728755557402       18.12566920117461
   188   3      6.1965172633600556      2.1799002333669111       16.22397579550567
   189   3      4.0866726892381449       2.025137643215571      18.158721920980881
   190   3      6.1850572291290771     0.12335799409123768      18.222936019700533
   191   4      3.8191782201421418    -0.33196439335217542      19.974981711939016
   192   2      5.9309230462023317      2.0260819863809609      22.172545822887322
   193   3       6.049827135655895      2.0680729687218493      20.291218627171588
   194   3      4.0522017633843337      2.1778721753459762      22.469010870905116
   195   3      6.0188555655697193     0.10448301320755161      22.477963022203447
   196   4       4.207470405071593      3.8460315166992274      11.785450657330436
   197   2      6.0440853073251164      6.1571999629942598      14.008850105218558
   198   3      6.1070979975855728      6.1435852905203943      12.143906114821228
   199   3      4.0947851636257235      6.1765499411086644      14.331110163381569
   200   3      5.9948996926097848      4.1297870041209688      14.280756758484994
   201   4      4.0246877027818986      4.1186718614345876      15.841665485992218
   202   2       6.046811792530578      6.1006774784349425      18.146394657680037
   203   3      6.1346697919641082      6.0500139223041156      16.264633794715856
   204   3      4.0781428767917314      6.1474254100223558      18.259619989838264
   205   3       6.063760164321538      4.0980933779258617      18.415123383723795
   206   4        4.04159935029059      4.5075709753243443      20.366344640113237
   207   1      6.0431954837475903      6.1014471594771633      22.320191602603941
   208   3      6.0649296561247423      6.0782923816163663      20.294971699530549
   209   3       4.039707740903717       5.964124463147817      22.397608623282981
   210   3      6.2484115009913426      4.0097844910634652      22.360553837570563
   211   4      3.8003200281314569      7.9501575869137486      11.902059964656088
   212   1      6.0601768709697428      10.081507700954518      14.127336409868516
   213   3      6.2859997352819477      10.136842946820497      12.095805490720037
   214   3      4.0364151941619504      10.033172855600814      14.217171396509164
   215   3      6.1800689712046335       8.061534676502335      14.371127731070404
   216   4      3.9217082330268003      8.0856873464779593      15.880353041690622
   217   2      5.9696399183823123      10.147789696817227      18.141028256170802
   218   3      6.0890926568780186      10.175428324067653      16.292186016257808
   219   3      4.0979355011333283      10.047240257447779      18.397138329458532
   220   3      6.2284810001707909      8.1146773527596103      18.343135688063516
   221   4      3.5765649798655303      8.1044880003291677      20.342786709640901
   222   2       5.951529190582308      10.093647345553798      22.255767417053296
   223   3      6.3166972749339267      10.070832451133318      20.358582084302437
   224   3      4.0938209355277513       10.24547051722603      22.303482194789456
   225   3      6.1537439465258146      8.1921343468930132       22.47203801966667
   226   4      8.4230574186651612    -0.32151473242477679      12.432230125955579
   227   1      10.006418417600074      2.0323488836575891      14.218756206000519
   228   3      10.242518394926273      2.1040383526551971      12.051000457592309
   229   3      8.0037826721961167       2.257565483996415      14.112918589906412
   230   3      10.137651429609887   0.0075607590126655745      14.051236469812164
   231   4      8.0133540300473065    -0.37267193471321886      16.277697406247135
   232   2      9.9480185121167786      2.0365450512685999       18.29012942040794
   233   3      10.170332554018433      1.9422635957770822      16.336732542035563
   234   3      8.0902408856866526      2.2124419178726664      18.396153434139535
   235   3      10.101405091183757    0.096316612684704359      18.488716515985153
   236   4      7.9865714735723952    -0.37134633319801735        20.1858445546399
   237   2      9.9982791637639998      1.9435634630375698      22.304362666914543
   238   3      10.254882616654267       2.265025731942619       20.32176855262124
   239   3      8.1015206205777872      2.0155438718621115      22.306771041136198
   240   3      10.269299077881636    0.075455147969741218      22.148602362159767
   241   4      7.8349347034609638       3.865769838238728       11.95115204788309
   242   1      10.089784004071692      6.0970163730331839      14.129466807295284
   243   3      10.067026365844772       6.069185447325478      12.092159407035906
   244   3      8.0419408072935514      6.0459191874829887      14.324048124119008
   245   3      10.236498807858977      4.0507777841058825      14.301485506315238
   246   4      8.1444974849129661       4.133542595304541      15.765830270883731
   247   1      10.027155364950987      6.0537459429140643      18.248486538282979
   248   3       10.22031323911539      6.1107441124229496      16.226108137016759
   249   3       8.030813290256452      6.0414978375348207      18.475556148239967
   250   3      10.330537965158749      4.0149645251842898      18.212458810421115
   251   4      7.7856895685267116      4.2318092324650252      20.146225812782379
   252   2      10.047440779364287       5.972781453367431       22.33737676187231
   253   3      10.297154658370479       6.021617326961894      20.382554128905195
   254   3      8.1599259581780892      6.1823228290109586      22.290960781764028
   255   3      10.143438239694639      4.0840318208097761      22.488793426875315
   256   4      8.2574354444289693      7.9144860960147358       11.90001723816721
   257   2      10.076967236519749      10.102033730707781      14.064243508149488
   258   3       10.04584006531889      10.242612715907272      12.200026289593023
   259   3       8.162156067553628      10.189890706667002      14.420034240031333
   260   3      10.020321506398684      8.1661793692476028      14.243786767759216
   261   4      8.1242897147601632      7.9746246256448092      15.858631136045164
   262   2       10.01519523313215      10.048604538579953      18.263928033039708
   263   3      10.273588919089674      10.098870521155883      16.334734095005565
   264   3       8.139710106477736      10.202822759648724      18.254467929866706
   265   3      10.137153800928786      8.1467916878476156      18.446210527464942
   266   4      7.8071491757276767       7.874347310892384      20.178814824119396
   267   2      10.120355139259868      9.9852819769853784        22.2613139054219
   268   3      10.160918794300914       10.26490224055307      20.295568501733083
   269   3       8.197541906961316      10.179659573662585      22.462640498611023
   270   3      10.244274534439299      8.1133624716988457      22.207729744209303
   271   4   -0.021713161920883923      12.187581043504823    -0.38383587323819279
   272   2      1.8872998678708588      14.180676705836289      2.0675449935150758
   273   3      2.1063629871955594      14.313691561483271    0.084609048698282729
   274   3   0.0066138000174917411      14.235288704601228      2.1274925695307352
   275   3      2.1331138197299557      12.235734912430972      1.9349042735605124
   276   4    -0.14442284280554063      11.952276021402415      4.1003671586018839
   277   2      1.9421295108982815      14.147959429786958      6.1199003294556977
   278   3      2.2065157834420557      14.166662819531009       4.052180683458336
   279   3    0.060789005945758992      14.149581030593115      6.0296952184386141
   280   3      2.2629329683233101      12.249540787207756      6.1165515885762307
   281   4     0.16392112513385004      12.053545074332169      8.4163627691752776
   282   1      1.9475299876317054      14.203840836067439      10.118989010688335
   283   3      2.1519358207319401       14.36518743224916      8.0071569374133293
   284   3   -0.064278312778728128      13.992023095008893       10.03168403575898
   285   3      2.2510050182493644      12.193126374613172      9.9623991336386108
   286   4   -0.086121825802480845      15.940063131489003     -0.3559293643800952
   287   1      1.9501976367514706      18.211557614563322      2.0133652431180722
   288   3      2.2446166633371982      18.211024099096196  -0.0054566150861702946
   289   3   -0.077015493633040374      18.430233020672173      1.9410374190890598
   290   3      2.2149847606946396      16.161734707548799      2.0936485160425953
   291   4    -0.33822695401053932      16.225642562954231      4.1805478988427529
   292   2      2.0768753147969714      18.175531706447835      6.1312941407064061
   293   3      1.9213684955158079      18.398216117018393      4.0839277231928701
   294   3     0.10513736542857126      18.401128598148944      6.1969058824664449
   295   3      2.0033155439269681      16.227320911014136      5.8901175759296516
   296   4    -0.33965620388001944      16.223046859453397      8.0449159725286954
   297   2      1.9514292574812011      18.187660293009571      10.192956049717095
   298   3      2.2476637496166845      18.202108566771052      8.0914253850481224
   299   3     0.07714094714142157      18.398705982175564      10.022338519805386
   300   3      2.0835668712974664      16.256257226784328       10.15664680294881
   301   4    0.082143381931552586      20.092469507963131    -0.22174747477606077
   302   2         2.0304738253335      22.181229377202484      1.9587873340837938
   303   3      1.9789539813612615      22.491919908293994    0.069401874125498642
   304   3    0.012935221082262832       22.40522696965089       2.195444367576687
   305   3      2.0627346907184334      20.304903027933168      1.9574484736764077
   306   4   -0.027188470558884487      19.875123826235381        3.99396194515713
   307   2      1.9111332187599455      22.332305897404026      6.1350908362247578
   308   3      2.1588850513107247      22.247173855437527      4.1096047861587364
   309   3    0.019770709513459758      22.221161335539882       6.105345022974852
   310   3      2.2396496892244633      20.258903659437916      6.1106230385612417
   311   4    -0.23768969288568476      20.020564443363298      7.9483871446023224
   312   1      1.9931144354788823      22.219138951089739      10.099234683169191
   313   3      2.1336761158258213      22.188669859065929      8.0624552813070576
   314   3   -0.032046361632874415      22.309096679094242      10.257188237974095
   315   3      2.4072451672334636       20.16031291802231      10.046233924138912
   316   4      3.6107758483911003      12.124717374230766    -0.22260218848848454
   317   2       5.985207439698101      14.122514349533073      2.0398904085013632
   318   3      6.2242548746902306      14.101193583293528    0.011890746404418768
   319   3      4.1266076243590675      14.192469212038201      2.0215823419414645
   320   3       6.241097571132955      12.203286186861829      2.0489742449924813
   321   4       3.894240076027458      11.968106111019688      4.1841288230164668
   322   2      5.9832287622245799      14.174329168829624      6.1115886686137424
   323   3      6.2397044121619984      14.334660113377696      3.9831599502621451
   324   3      4.1070234305754845       14.37158629514059      6.0080053906901973
   325   3      6.1177861631795576      12.246352748770835      5.8813355344900726
   326   4      3.9105739629279643      11.996046265772099      8.3391416785478825
   327   1      6.1152294478436611       14.17700449769403       10.10301711374388
   328   3      6.2097389165839791      14.231929006567324      8.0198692604585009
   329   3       4.098469043460482      14.397806988961579       10.16377588746438
   330   3      6.0764043822795886      12.166052125429546       10.19298320427901
   331   4      3.6231768451687474      16.250940726309341    0.072240883162006497
   332   2      5.9747871083065487      18.251342007093051      2.0035118340493558
   333   3      5.9420771729849688      18.426310965087591     0.01632282271426834
   334   3      4.0765251650486682      18.242734583903037      2.2190738879443068
   335   3      6.1730419747258329      16.197508872817007      1.8754663772222664
   336   4      3.7744687002985802      16.293186015875282      4.0132977334295372
   337   1       6.035659376594892      18.215064783886639      6.0719278093771747
   338   3      6.3730398281004534      18.112294754899498      3.9653868408808988
   339   3      4.0246823707559098      18.164360841551989      5.7730148876116463
   340   3      6.3865836514619785      16.156229611115872      6.0431941280823578
   341   4      3.9139019114056408      15.956173094202004      8.3988347910960144
   342   2      6.0524502400784632      18.278352557019367      9.9755510847353257
   343   3      6.1364513587432654      18.223857185716813      8.1167056871193228
   344   3      4.1558247725940083      17.992385833127251      10.226099417898174
   345   3      6.3904407392634175      16.280797043108404      10.110314663204139
   346   4      3.8588911855287265       19.97298223285344     -0.1647612163000329
   347   1      5.9900071979724778      22.226318206965477      1.9890319938489145
   348   3      6.2421800037662862          22.26441457112    -0.02954834182943427
   349   3      3.9676511568654171      22.464984103745561      2.0597628834703046
   350   3      6.2432386486485933      20.209085916375493      2.1498612622787676
   351   4      3.8095528214304477      20.040113735418423      4.1444857238145474
   352   2      6.0633037962206808      22.191757084214903      5.9710088444714993
   353   3       6.069648126961745      22.509021914941435      4.0724329034660176
   354   3      4.0904330063437087       22.34612693284177       6.158282634488228
   355   3      6.0439859977725279      20.262605449009257      5.7873521888454125
   356   4      3.8091343776419917      20.442964055391599      8.1469397470081937
   357   2      6.0449492555597191      22.358128645999145       10.10299846140731
   358   3      6.1581968502887481      22.078164174024206      8.1176504116304002
   359   3      4.1329541572340904      22.315587713747444      10.152404000937159