(written by ASE)

1080 atoms
4 atom types

0.0      24.299999999999997  xlo xhi
0.0      24.299999999999997  ylo yhi
0.0      24.299999999999997  zlo zhi

Atoms # atomic

     1   4   -0.004359262063444432   -0.021551852708584503    -0.35896884763907583
     2   2       2.156813575753517      2.0133846963995268      2.0019276708848777
     3   3      1.8682064358978898      1.9717674028752792    0.086317595700533892
     4   3   -0.031352806589228378      1.9927315525941089      2.3588538020061915
     5   3      1.9094258762448681      0.0187536084417501      2.1896011591687032
     6   4     0.08663612799710485   -0.023062287401626205       3.825582367581533
     7   1      1.9918302291444463       1.978736735299951       6.070632307463204
     8   3      2.0801133112576045      2.1895388114760719      4.0408026116648665
     9   3   -0.037303455882854081      2.2813634402166079      6.0086910767755821
    10   3       1.959337955829777   -0.033391467301996131      6.1714065497769903
    11   4    -0.26678666206211782    0.051685777371578201      8.1291840451905806
    12   2      2.0212292898636872      1.9076661829356218      10.040482262493381
    13   3      1.8877504937975538      2.0562817119374781      8.1610211744019789
    14   3    0.079400863532087237      2.1320681170698377      10.356948305397234
    15   3       1.994202870671169    0.019226078739809884      10.298644158233014
    16   4     0.37974394105054377      4.1826065320714427  -0.0021894118619504234
    17   1       2.022840704304349      6.0417128774282736      2.0897701740480841
    18   3      1.8759554151098881      6.1687786663390654    0.052816104719166548
    19   3   -0.095885530901618637      6.1915686977766118      2.1837618817455917
    20   3      1.8277158473735173      3.9807046637786341      1.9688713654358985
    21   4     0.21779283030246743      3.7444277687144369       3.965830715030974
    22   2      2.0414983459352203       5.916582478792864      6.0640818505996554
    23   3      1.9167553924822944      6.1270480848334063      4.1561944167266311
    24   3    0.025359338926462475       6.076043076766112      6.2256612197764802
    25   3      2.1333145898474326      4.0687757765219317      6.1835480593500751
    26   4     -0.1317942839615367       3.739659380322824      7.9555793863805819
    27   2      1.9373876337338789      6.0171346303579583      10.138112967369738
    28   3      2.0596080402684938      6.2531086816663812      8.1019422932474718
    29   3   0.0011138608571691759       6.110114124296766      10.142365709618197
    30   3      2.1293557395229619       4.100607342054241      10.137044771801111
    31   4     0.16533519416612186      7.8143916703879919    -0.19601903674341317
    32   2      1.9008273945380525      10.075331852012237      2.0253757403331147
    33   3      2.0882155131306881      10.201290774080681     0.12739111511694018
    34   3    -0.03357875863328378      10.312711311192599      2.1186569161129887
    35   3       1.920431441861453      8.2125498225717131      2.2058783691168733
    36   4    0.079492911157242871      7.7912460229936302      3.9275328354533414
    37   2      2.0204528229111238      10.037878923262417      6.1308080166062018
    38   3      1.9413121168472762      10.393662208716279      4.0703888457318937
    39   3    0.054277742119023496      10.392847969754408      6.1238326798169629
    40   3      1.9078969167748048      8.1579011415330136      6.0534434235621557
    41   4    -0.19693929809184271      7.9200123645473104      7.9756817998144944
    42   1      1.9645722423369441      10.093357117075454      10.058478001347114
    43   3       2.112370112032385      10.309119502715864      8.0238524738246806
    44   3   -0.075104002507663192      10.484464279265648      10.040928498098605
    45   3      2.0981358106296297      8.0911995597380386      10.088696508471916
    46   4      3.9697942621108564    -0.25816466776760943    -0.24637645217952703
    47   2      6.1771153745032752      1.8742967263632586       1.986790955577791
    48   3        6.19436304425688      2.1654470493578182    0.060479020374643443
    49   3      4.0640183982996518        2.08668450422324      2.0259334963254267
    50   3      6.0757441229418561    0.011891364949048184      2.0109152424038386
    51   4      4.1908133210315004     -0.4647152147468735      4.0325412237275753
    52   1      6.1013791952550314      2.0049571527807717      6.0624030752198328
    53   3      6.0208024950345544      2.1576851184787067      4.0137503535172128
    54   3      4.0520444323272828       2.033795950596395      6.2114004414479638
    55   3      6.2286422466968112   -0.016363622839449248      6.1844272246919729
    56   4       4.144306808785287    0.069729064181800665      7.5797739219554279
    57   1      6.0567926457394199      1.9592016420284899      10.130308672326173
    58   3      6.2102906507041613      2.1213351428061151      8.1101593365956237
    59   3      3.9995088215673835      2.0793245013164054      10.119316429757104
    60   3      6.3766271634470888   -0.048969929001652819      10.087143262624148
    61   4      3.9497309244290295      4.2260280111519348    -0.33442449787764744
    62   2      5.9129498143129231      5.9987446214586617      2.0875399892821931
    63   3      6.2594802722714178       6.074310681887968    0.090797153526433874
    64   3      4.0559572966078967      6.1524601910871919      1.9163110267875687
    65   3      6.1260803470265079      4.1027081754385701      2.0680020713027254
    66   4      4.1042644371309418      3.5823059552556327       4.294501008166252
    67   2      6.1829669482566461      6.0721963927325486      6.1865713929583714
    68   3      5.9535109989752266      6.1630538451647467      4.0275116606372299
    69   3      3.9968314621702481      6.3198695702706313      6.0803686064300564
    70   3      5.9476882714091772      4.1409453917359524      6.0242628067789976
    71   4      4.2361603231453691      3.6103784954175877       7.986983893183293
    72   1      6.0690864770946966      6.0874829868513798      10.084950974979222
    73   3      6.0769285896727299      6.1333597549307548      8.0654976431691594
    74   3      4.0341360894905227      6.2947528105855497      10.124193499165369
    75   3      6.0543822630596598      4.0556240203540481      10.250692291154524
    76   4      3.8108058939877765      7.7331958678895294    -0.19480692664988378
    77   2       5.945278628332332      10.054295799976158       2.044466193767676
    78   3      6.0995969105502477      10.312149487262181    0.081871183306179415
    79   3        4.03574970479999      10.250263095649718      2.1699447992746332
    80   3      6.1211142427870309      8.1457937576981081      1.9498228742393107
    81   4      4.2086242602150046      8.0233572167714531      4.3649313941984476
    82   1      6.0218351791936309      10.117228787102169       6.108694831873942
    83   3      6.2311416735641165       10.18919788239447      3.9599877557095535
    84   3      3.9865536955382503      10.100317104337456      5.8142837968642267
    85   3      6.0932860949775689      8.0906560785810875      5.8929677384862869
    86   4      3.8836956444302975      7.8639990991568194      8.3191676230679956
    87   2      5.9794628170237099      10.105750464375825      10.100342487247211
    88   3      6.2323647780933555      10.185755571485792      8.1358144580025069
    89   3      4.0946677251122807      9.9795444356707552      10.157373311795165
    90   3      6.4418912960584764      8.1369151187409301      10.076445370191351
    91   4      7.9157340926981261    -0.34580320050144092    -0.16262931489030924
    92   1      10.072491956606429      1.9842372223406615      2.0422959995627621
    93   3      10.205806164048576      1.9505791055384702   -0.057991398553386184
    94   3      8.0580243086407535      2.1381653022871321      2.1984145074852668
    95   3      10.319314085969852   -0.043331182578839084      2.0713126114594247
    96   4       7.735034866752887    -0.27210119747692124      4.2804733456246362
    97   2      10.062183109654649      1.9988853739257038      5.9959539277753082
    98   3       10.28355825788862      2.2148226811564711      4.0912680227887774
    99   3      8.1620894461545106      2.2193218165315511      5.9919477249277744
   100   3      10.087101434694764    0.059885461334569852      5.9680296077074724
   101   4      7.7207718406331409    0.054024135857623834      7.9877648837782873
   102   2      10.088304957711557      1.9380352669615826      10.093490596866737
   103   3      10.140633833042447       2.153888795516083      8.1003595400623905
   104   3      8.1835897082123932      2.3203503457709638      10.195724498730623
   105   3      9.9110539320127877    0.067605675337641613      10.170720665738497
   106   4      7.7429898296977351       4.057698546987651   -0.083352509196027186
   107   2      10.010161492255431      6.0102176856101748      2.0688465948086043
   108   3      10.126138021366476      6.2130209305031201  -0.0031652533238231721
   109   3      8.1188755195422591      6.1462249447815696      2.1358647423257189
   110   3      10.217384207921606      4.0991122670408506      1.9358125094838579
   111   4      7.8988002634860903      3.7679918509235804      4.0571691152629334
   112   1      10.077134342968121      6.0757670579722536      6.0965062399315464
   113   3      10.350319524160827       6.031487872124238      3.9766706906462663
   114   3      8.0607823333687687      6.0991410611639498      5.9479621672852865
   115   3      10.424184934173399      4.0411169504100659      6.0904056169415304
   116   4      7.7620664441306948      3.8403710467350622      8.2752236443001763
   117   2      10.109052930960798      6.0463048471686403      10.127774976754518
   118   3      10.302275107535769      6.0919638051378806      8.1375163225394704
   119   3      8.1700322997583221      5.8140654511099505      10.161399473475191
   120   3       10.44187476314451      4.0598411598965063      10.127401949576223
   121   4      7.6577855642810668      8.0200781819897475    -0.14401008944986979
   122   2      10.047230597161466      10.062745298585838      2.0233828702270817
   123   3      10.277233666960003      10.214105912077997   -0.033394282055598773
   124   3      8.1357861414754229      10.197291842673801      1.9075722917233331
   125   3       10.26669155461035      8.1473607790110911      2.0104543247750111
   126   4      8.0430724482670257      8.1854085247628667      4.4420929083346676
   127   2      10.230355140661823      10.161342570128717      6.2380944962804419
   128   3      10.119879318242388      10.265682414199185      3.9396181765031559
   129   3       8.165242194560868       10.15694483972238      5.9669636819719125
   130   3      10.086872349562535      8.1674537335656989      5.8146251440536485
   131   4      8.1310333900127691      8.1913660052173061      8.3400256692435022
   132   1      10.181687889521081       10.05534240385858      10.138351942928358
   133   3       10.11822754153876      10.021478653523499      8.1015741988078389
   134   3       8.149062879154247      10.349792158889787       10.04395818031149
   135   3      9.7705981757903952      8.0352344764124357      10.150122686520099
   136   4   -0.033057435735631045    -0.19708600181176875      11.854678636636272
   137   2      2.1605923649403427      1.9919347904439326      14.132555362052017
   138   3      2.1134114814141398      2.2144998135112912      12.185334225987241
   139   3   0.0040426553950848503      2.2596964193085531      14.071199820562809
   140   3      1.9560612735812095    0.058902293264811459        14.0688388758557
   141   4     0.37627645491291872   -0.040774203085187546      16.367108254888123
   142   1      2.0453497551814737      2.0431171256959395       18.17635314452713
   143   3      1.7615237843669072      1.9838229838326558      16.133718657332818
   144   3   -0.018468432901877458      2.3534248593755334      18.319655307921199
   145   3       1.858294156351012    0.033227503657408917      18.258182515769075
   146   4     0.32795410237863287    -0.28252113952642793      19.970414742713182
   147   2      1.9136172116791177        1.99459303932695      22.161734192295189
   148   3      2.1074322253980085      2.1912041666651301      20.296739175787394
   149   3    0.037101593072943279      1.9300192805002974      22.268381303025233
   150   3      2.1300478713626805    0.064219408819660678      22.416768699312708
   151   4   -0.064875904871160087      3.7189163272926535      12.123160563566238
   152   1       2.002821952036963      6.0449560950479793      14.116641755143055
   153   3        2.05042556477955      6.2328461526809464      12.090955914339045
   154   3   -0.042756586300553581       6.236570639901565      14.130143625090104
   155   3       2.079054098059081      4.0275326689240369      14.387191347367329
   156   4     0.20940370024993529      3.8028682421063777      16.010011084092568
   157   2      2.0046688764147786      6.0953477588515792      18.122774215946034
   158   3      1.9599175087628022      6.1936550468986047      16.238082090395977
   159   3    0.046074013111011551      6.0023610886040171       18.43948718959388
   160   3      2.1100215433333576      4.1342062078989485      18.272100049454366
   161   4     0.15242509320253586      4.0950095480920661      19.964208550004898
   162   1      1.9601224397555856      6.0322172755744088      22.241251620791367
   163   3      2.1869300694065066      6.0174935500118574      20.246411416447959
   164   3   -0.069734320500871388       6.184190017757623      22.320230215950048
   165   3      2.0114505767311188      3.9851587996470359        22.5461365470407
   166   4    -0.10464320870754522      7.8236139560207079       12.22974438833374
   167   2      2.0592356818807356       10.12135439521408      13.983170432683972
   168   3      1.9446179206421321      10.170291230583878      12.122088310491055
   169   3    0.070424461010625813      10.208551579378168       14.36323486874233
   170   3      1.9980294145426909      8.1825973269361061      14.283450074934359
   171   4   -0.029486027563331772        7.99375682246243      15.838680392724815
   172   2      1.8967205612348521      10.121951448853334      18.118601900022927
   173   3      2.1587565316361701       10.17992331402629      16.255965157803569
   174   3    0.028812431013728036      10.202857443202157      18.203472963023739
   175   3      1.9106819104776269      8.1281061873907507      18.370764240466475
   176   4    -0.20460896412796092      8.0074486824991524      19.848709429414747
   177   2      2.0304729036140072       10.09272068396745      22.167596312851618
   178   3      1.8920384941988966      10.163301192047756      20.301836176607054
   179   3   -0.017364308380521023      10.137133897108265      22.553386235352335
   180   3      2.0180899202464464      8.1619702195041857      22.421710567927651
   181   4      3.9624374114323935    -0.26258208001304201      11.915963053770074
   182   2      6.1756029594850874      1.9657888206828031      14.111430065553694
   183   3      5.9932027264985104       2.065089237143992      12.214564516354228
   184   3      4.0649021391441336      2.0733562756222614      14.364165033459527
   185   3        6.18240211642508     0.09404253753503275      14.323706683046888
   186   4      4.0344147815562881    -0.38311278959428768      16.405484037751911
   187   2      5.9369321800185082      2.0338801305576255      18.117275874443404
   188   3      6.1129346420313064       2.271609343245931      16.244321960873396
   189   3       4.071298333624461      2.0608310552601581      18.264709963555902
   190   3       6.194785763374008     0.14295074201471611      18.164330329990026
   191   4      3.8385244548245541    -0.37563315384120882      20.002558442439049
   192   2      5.9461803190680769      2.0056936615933871      22.182803408010919
   193   3      6.0340922789647529      2.0298649733884657      20.309668821417148
   194   3      4.0467422293950026       2.117025866138305      22.504632493453897
   195   3      6.0423566185577453    0.093328375890589205      22.531103245881123
   196   4      4.2126244696114625      3.9090146881824674       11.72659716504614
   197   2      6.0427842666236682      6.1223178289796696      14.011178737314694
   198   3      6.0884214368490257      6.2076839916178583      12.145196933824479
   199   3      4.0745636445934199      6.1840687407334967      14.332892111587896
   200   3      5.9232248465790454      4.1247250021350439      14.190840652903166
   201   4      4.0176607261332631      4.1690565753376276      15.835380454921049
   202   2      6.1112192514556538      6.1222508605245034       18.14531424993363
   203   3      6.0518893830577367      5.9710150258480157        16.2574123700578
   204   3      4.0477273209798001      6.2059084180845936      18.293117779013635
   205   3      5.9499288709702975      4.1050939233898376      18.526169199383283
   206   4      3.8642153572662439      4.0988895730442705       19.99550006346028
   207   1      6.0262814390982484      6.0609948059063692      22.309319297081061
   208   3      6.0207536992455424      6.2082773174350336      20.271865474346502
   209   3      4.0127271412962013      6.0999169507160804      22.461193112117993
   210   3      6.1370160025160168      4.0048284504890397      22.404893160248324
   211   4      3.7653776388675695      7.9366673269905066      11.866489429854747
   212   1      6.0359143312687271      10.085081777712317      14.101189572894143
   213   3      6.3912293510654896      10.034880784059878      12.087028427174266
   214   3      4.0028391660433025      10.078311129330146      14.261798885120562
   215   3      6.1171719365800277      8.0640756048666908      14.412806967927883
   216   4      4.0154884209345418      8.1177488440688759      15.799398944708404
   217   2      5.8856534804806842      10.136180545779725      18.247158803248599
   218   3      6.0564204118047789      10.248715925144777      16.327800166561531
   219   3      4.0073068606032036      10.042493995983715      18.427317139286785
   220   3       6.216270904630365      8.1077872275592693       18.23884699136579
   221   4      3.9728634201802104      7.6431084835959053      20.439451115269645
   222   1      5.9475328760059147      10.121406086805312      22.303791381391129
   223   3      6.3072107915931674      10.060859132303317      20.259829533918552
   224   3      3.9300480044268999       10.25384365960281      22.383511871660946
   225   3      6.1900035556462543      8.1150145595444645      22.376846542368533
   226   4      8.0271193362782025    -0.20078739549717431      11.850050808740564
   227   1      10.037226007426437      2.0429884470388835       14.19329946480666
   228   3      10.325732716763456      2.0926047041956957      12.077987887387383
   229   3      8.0358073615672474      2.2675292021531552      14.192431532974757
   230   3      10.200355727011013   -0.006680225410762998      14.199485396321034
   231   4      7.9347358243317219    -0.31380231465473957      16.337381210697686
   232   2      9.9433421449410222      2.0641694572722011      18.281859783036666
   233   3      10.158224820966591      1.9944782175673057       16.33527845856506
   234   3      8.0682413490053726      2.2689783108084733      18.401920820098162
   235   3      10.058618661249611    0.098638539073126322      18.444767983553017
   236   4      8.0475875864188549    -0.39806975820765544      20.189554687547897
   237   2      9.9944193066551232      1.9669949278507697      22.305320109358725
   238   3      10.250238092326123      2.1908801063678141      20.311702912280637
   239   3      8.0896645512486618      2.0630133510859872      22.304373839245784
   240   3      10.245233882018699    0.075125000966691557      22.199252452964743
   241   4      7.8317127017488808      4.0407908552823715      11.847679150849379
   242   1      10.083359777642631      6.1329686034687869      14.135780432999697
   243   3      10.319596237535544       6.078461745482775      12.125892639853681
   244   3        8.02158705087753      6.0683416272330239      14.323487008853192
   245   3      10.236032695757411      4.0749010921655175      14.283878521844223
   246   4       8.291244766124624      4.2208330402425238      15.822284880460092
   247   1      10.024225594494228      6.0737109500195423      18.252192780912587
   248   3      10.198992315660616      6.0375192331331693      16.234570453872397
   249   3      8.0119171093564319      5.8854250298725503      18.363125872521902
   250   3      10.348821063512982      4.0085669320192006      18.237733007293553
   251   4      7.7960981113682948      4.2431665126769182      20.146429795965542
   252   2      10.024652955794105      5.9663675083714915      22.326934544644764
   253   3       10.29511479473409      6.0360532795537614      20.363394617493931
   254   3      8.1405457272275932      6.0546331960766882      22.263497121952071
   255   3      10.193603823737963      4.0684786398041988      22.427343243968132
   256   4      8.0209927804675445      8.1674014822359204       11.90856721523876
   257   2      10.063391988680873      10.137953863555841       14.09323985973081
   258   3      9.9836660031043358      10.136051658713644       12.22214784191338
   259   3      8.1384449826226497      10.121846939130752      14.469916734021576
   260   3      10.094448415629328      8.1791209775810003      14.405639957075355
   261   4      8.0777227213769383      8.0555314974322592      15.877502432595151
   262   2      9.9982277253183689      10.090053570539684      18.279598816602256
   263   3      10.293184952724948      10.201340345234845      16.336083104875367
   264   3      8.1274012346054096      10.265888437378468      18.171931134008865
   265   3      10.163425597504681      8.1722034788969449      18.337313269870478
   266   4      7.6164425774112576      8.0897085813551062      20.486597386371688
   267   2      10.124395689406263      9.9661141555319173      22.282699831015247
   268   3      10.133606878646571      10.217319004657789      20.284216913304014
   269   3      8.2036262525371697      10.226925904281895      22.395033315046817
   270   3      10.189519619443606      8.0897956971097678      22.228060311681737
   271   4   -0.076984401529810634      12.268727478844397    -0.41909742701894448
   272   2      1.8643273223219481      14.150278175144893      2.0237030126174074
   273   3      2.1147917375875718       14.23730148735593     0.10716062421804708
   274   3   -0.025098807792810551      14.244630635996343      2.1079295776386471
   275   3      2.1326718882908016      12.240619301049643      2.0990319470919503
   276   4    -0.21734759721010505      11.876856534790894      4.2031481355979707
   277   2      1.9296095845545767      14.176592087967578      6.0670152087730704
   278   3       2.152521205963998      14.312715608081543      4.0802914779291086
   279   3     0.05883604608626164      14.188064707468893      6.1227055141997244
   280   3      2.2424909583297308      12.258939175027157      6.0436894335155547
   281   4    -0.18136631857206834      11.875322592375664       8.065143837278109
   282   1      1.9308220982340041      14.213451852668054      10.078855242190492
   283   3      2.2675337304603227      14.205124605359563      8.0220700476321749
   284   3   -0.074562692479470519      14.010570534918514      10.105055104106688
   285   3      2.2320535508101949      12.165097439526077      10.146809629321062
   286   4   -0.071236425516195384      16.028146521714671    -0.38441998140838785
   287   1      1.9547816550581116      18.213101060669711      2.0201682756123622
   288   3       2.267764316167916      18.268260167838108    0.011630040123482281
   289   3   -0.072014834598859226      18.406628914632677      2.0113434872046216
   290   3      2.2160742008628436      16.164777238844827      2.0578560160558341
   291   4    -0.38433750395579475      16.307673840907849      4.1260613208076053
   292   2      1.9564398162526206      18.223723395169422      6.0841763898811108
   293   3      2.0701202406143362      18.236385878228305      4.1386847486541329
   294   3    0.087188590615893929      18.351402090185271      6.2370698342148208
   295   3      2.0965831449759582      16.244114881118975      6.1238264971628515
   296   4    -0.35958070104672907      16.257802843441219      8.0294304900900162
   297   2      1.9558487812512775      18.209720821981183      10.123507345614266
   298   3      2.3174471436061284      18.274897251930025      8.0953113705513111
   299   3    0.085841853556469949      18.392122558393151      10.008761169942613
   300   3      2.1685704586755068      16.271040342572167      10.086710925838066
   301   4    0.068109144593539325      20.198601084318227    -0.31197734374383262
   302   2      2.0181767343177723      22.210142125845788      1.9591537889655299
   303   3      1.9928944985180406      22.333678124484535    0.069032966786514452
   304   3    0.011607735521903756      22.294089611149126      2.2509638240783785
   305   3      2.1042913776874634      20.294428861898144      2.1521505385251327
   306   4    -0.17219264593215483      20.039058844712741      3.8818433158565249
   307   2      1.9443301309980949      22.363990105327282      6.1426687901407426
   308   3      2.1611801266152186      22.257973312421136      4.1173994762611104
   309   3    0.023801322352889981      22.146340628858887      6.0747006993452022
   310   3      2.2872414282432696       20.20941916421647      6.0794591845156294
   311   4     -0.2914242102824392      20.158793020155301      8.0060634407528877
   312   1      2.0049812364098907      22.213456191006106      10.093636760147573
   313   3      2.0703555704109506      22.107201319323682      8.0671415206546158
   314   3   -0.019791745027771274      22.244951576162514      10.320884823305319
   315   3      2.4042170844502104      20.189636623103375      10.068944702340838
   316   4      3.7976610124906887      12.032207939581259    -0.23908152853697162
   317   2      5.9909340053799092      14.097520707680932      2.0722381340046399
   318   3      6.1763712327803075      14.145618374602357    0.038098129557796616
   319   3      4.1185173208282251      14.214094536502031      2.1096539686370597
   320   3      6.1911272953916479      12.204491557947167      2.0744326751792346
   321   4      3.8840657258351983      11.939946965453405      4.1792361681393011
   322   2      6.0454610777905398      14.073232713381266      6.1438487688831733
   323   3      6.2658690840286839      14.344835874019246      4.0125291928045028
   324   3      4.1458367698481338      14.349355524181684      6.0044671040303621
   325   3      6.1269206047611702      12.191363686922042      5.9459075912623716
   326   4      3.6889795355578268      12.198412141370628      8.3194998902647566
   327   1      6.1326240289921472      14.153741689867186      10.087455943638762
   328   3      6.1417067251729138      14.201981191551225      8.0433668499380442
   329   3      4.1069053211694246      14.297421978144476      10.187537043196302
   330   3       6.081436076400677      12.106165407658603      10.228814796202961
   331   4      3.6253982940598317      16.258601048600859    0.047701170374174949
   332   2      6.0483194611236311      18.199754106181238      1.9777404860129679
   333   3      5.8855994571145596      18.454442383533998    0.034034739446298902
   334   3      4.1206940588216563      18.270899973107245      2.2543325032843771
   335   3      6.1213067149369742      16.210704715822224      1.8885382220046976
   336   4      3.7467845831711308      16.232951158475643      3.8862028864689102
   337   2      6.0339306508087871      18.172498790226189      5.9901065813942056
   338   3      6.3600922400305278      18.179571508353114      4.0688948379392835
   339   3      4.1685678827334272      18.176776166922437      5.9928099725797663
   340   3      6.3250820134763774      16.267769053358858      6.1428974606306141
   341   4      3.9022936133066746      15.904330220138025      8.2729503208872863
   342   2       6.101414561281139      18.131724544666898      10.029598143861655
   343   3      6.1800446817593668      18.387469505236052      8.1215932307873757
   344   3      4.2012352577866778      18.145568516792238      10.250000359240614
   345   3      6.2888794957748191      16.266871652875324      10.117202837911227
   346   4      3.9070448098012056      19.961410029380968   -0.099053231097851677
   347   1      6.0092711096837546      22.230082081263586      1.9863736946825299
   348   3      6.2277574672022125      22.238764809880887   -0.040584360001912741
   349   3      3.9782458956161677      22.393865836011539      2.0878043701892075
   350   3      6.2022284640981962      20.200266256400372      2.1419880949103356
   351   4      3.7711765852821322      20.177115497535571      3.9303393681327021
   352   1      6.0370968224912867      22.202594352375076      6.0847010023570673
   353   3      6.1156851064795674      22.358102546886833      4.0557241954430454
   354   3      4.0369084576751533      22.430458628177224      6.1376793857770666
   355   3      6.2796742643676566      20.177642886444342      6.0487843791276212
   356   4      3.7527981272997333      20.387660616677113      8.0772737748510171
   357   2      6.0907820481957504      22.224448399065178      10.023334739501284
   358   3      6.2939153601723818      22.194908694081779      8.1301927639978135
   359   3      4.1734378423911602      22.428952086116908      10.161333240301047