(written by ASE)

1080 atoms
4 atom types

0.0      24.299999999999997  xlo xhi
0.0      24.299999999999997  ylo yhi
0.0      24.299999999999997  zlo zhi

Atoms # atomic

     1   4    -0.25369679588494759    -0.26204615655593605    -0.20632935182199622
     2   1      2.0831736196220474      1.9005644237409964      2.0068493287401101
     3   3      2.0510296154426393      2.1843518647850537   -0.036722148379778649
     4   3    -0.05995188499739109       2.127869906248911      2.0762395190134759
     5   3      1.9600361164657882   -0.098869510734706817      2.1192712592063154
     6   4     0.18961774889276828     0.04213753679839502      3.7074861505346384
     7   1      1.9915403423161482      1.9594472491401744       6.064742726474857
     8   3      1.9805075036096009      2.0970561447342191      4.0539158307166856
     9   3   -0.038705007817703002      2.0214928210315621      6.2665837990976678
    10   3       1.899365002295295   -0.061272189002299568      6.2744531612045726
    11   4   -0.011500265351669481    0.082424568890779509      7.8661316744253558
    12   2      2.0256154561843793      1.9158077639869469      10.068273611976899
    13   3      1.9783160758744185      2.0832457397410304       8.180699450835208
    14   3    0.026347965150158151       2.219079299193472      10.259986916385955
    15   3       1.928348697780385    0.032702767831034978       10.23214360350145
    16   4     0.25539596065477865      3.7599567109979204     0.22932822806674949
    17   1      1.9886891927860446      6.0958293626932329      2.0674486646854056
    18   3      1.9633571883655343      6.2453417305291641   -0.027785347636613687
    19   3    -0.10032823474349432      6.1234688615567388      2.0074074058182645
    20   3      1.9337497886905846      4.0615122608602983      1.9371909715178188
    21   4     0.39615244636260111      3.7555762150583956        3.76565239084661
    22   2       2.001816880174669      5.9199912466188609      5.9683617712402652
    23   3      2.0517958473191018       6.044381395487747      4.1036548476125203
    24   3    0.055125696607784921      6.1354719989985034      6.1364478200752357
    25   3      2.0711984700911525      4.0568779342008403      6.1954292708348202
    26   4   -0.091953271221299829      3.7988692814131442       7.868808574714925
    27   2      1.9848858472099498      6.0291631315405994      10.041347109822173
    28   3       2.061031842665026      6.2179129358579921      8.1003487744947904
    29   3  -0.0072836531195812713      6.0894960805660343      10.203963802349348
    30   3      2.1148102113609064      4.0999679962900792      10.210031979659488
    31   4   -0.042953651886984898      7.7551398320406397    -0.11907376817997689
    32   2      1.9292194002121299      10.020421135876468      2.0222530248346104
    33   3       2.184157682183185      10.226740250072272     0.11004641569066659
    34   3 -0.00065339379389503277      10.326369606586972       2.047816507395475
    35   3      2.0090446870537417      8.1805775415399626      2.0820222868688179
    36   4     -0.3402384275998373      7.9138000681759824      4.2817917127850489
    37   2      2.0337797956975936      10.023353008365884      6.1172360160689472
    38   3       1.958128348333112      10.367732843225797      4.0441207983271124
    39   3     0.06997422536415919      10.406535228441294      6.0923273081930862
    40   3      1.9117006883486227       8.147345441992492      6.0303651652909007
    41   4    -0.29471373898729608      7.8788067739897905       7.846726169795029
    42   1       1.969190968130877      10.059512998236382      10.054683591089345
    43   3      2.1020639814177886      10.316812419085318      8.0108816614420277
    44   3    -0.07155008202291592      10.425914641593854      10.043182519382661
    45   3      1.9594806825364188      8.0655843411003048      10.225577519395809
    46   4      4.0256460386442852    -0.23745894760054898    -0.27628293166753148
    47   2      6.1111531400515462        1.84071176765663      1.9877250176097914
    48   3      6.1271122094307913      2.1954335931415643    0.045830579472183164
    49   3      4.1222527972776888      2.1669706367212176      2.0146225646980063
    50   3      6.0139072648653178   -0.028114124290583169       1.963242029489936
    51   4      4.2145370016674502    -0.40678140788903083      3.8967568674163302
    52   1      6.0907958198173766      2.0216118496982678      6.0412320615247532
    53   3      6.0805477482185815      2.0822883716280414      4.0011590847934082
    54   3      4.0396880687464254       1.998321478149939      6.1933358252615065
    55   3      6.2186143516527546   -0.014342177296373422      6.2046438124552807
    56   4        4.19718795354596     0.13093567249007573      7.6213857598078505
    57   1      6.0436884022326289       1.964441890773847      10.143128438413967
    58   3      6.1560218335609349       2.105098876668642      8.1167352227653105
    59   3      3.9785779837852751      2.0333909583172978      10.224224013586371
    60   3      6.3640321988388004   -0.043873093512881649      10.078078862660099
    61   4      3.7564757144932792      3.8254137439791096     0.31024277789067212
    62   2      5.9311704526472591      5.9755368452533935      2.0660527688596035
    63   3      6.3014003247230645       6.064804286679256    0.093321035397005966
    64   3      4.0725771274578637      6.1500412565391009      1.8752760926325509
    65   3      6.1187268468901648      4.0922879679258628      2.0813025310863109
    66   4      3.9510181669629154      3.4505536364824838      4.1143978647067048
    67   2      6.1920035829058779      6.0219646197345318       6.133700105158101
    68   3      5.9562005744540611      6.1980882918107127      4.0218777971444259
    69   3      3.9945335247020464      6.3529691385878602      6.1299947374496586
    70   3      5.9217632164929856      4.1222319729301367      6.0667149515692804
    71   4      4.1892127977802156      3.6278312078740456      7.8887766951628606
    72   1      6.0725184940605699      6.0681123289066807      10.089984332632257
    73   3      6.0359969710257246      6.1823888536378453      8.0442481268979051
    74   3      4.0200133507115332      6.3057061048887331      10.110189292942211
    75   3      6.0445310547370248      4.0483004420815254      10.290668340202094
    76   4      3.8246393658038578      7.8146624277531025    -0.06765117059296416
    77   2      6.0536249598737513      10.036332488120753      2.0506608227734766
    78   3      6.0743038855569154      10.386378683501565    0.035946036948664398
    79   3      4.0615274829925854       10.25031513861528       2.160120537934862
    80   3      6.1153488415641002      8.1399235518411945      1.9193005202867772
    81   4      4.2030231659326756      7.9971859700142529      4.3386503766099294
    82   1      6.0213449720016277      10.116221285950758      6.0988678070325424
    83   3      6.1775157987916405      10.186465926167333      3.9821366573005421
    84   3      3.9849192844300383      10.076855191362355       5.818022169915233
    85   3      6.1135276847134845      8.0881865124366037      5.9071089159772878
    86   4       4.074955836378499      7.7800686466672131      8.1436665927220044
    87   2      5.9546159274596704      10.102407285165677      10.092629854418398
    88   3      6.2004240933945374      10.147232745093611       8.134267786226669
    89   3      4.0730941854611267      9.9381331730415887      10.178681653570756
    90   3      6.4259806504539032       8.120729459732285      10.077976061010588
    91   4      7.8745071311474808    -0.28900206900641495    -0.19905617449813379
    92   1      10.065629573398697      1.9879940856341691      2.0292072354301025
    93   3      10.305512630897102      2.0024058885692053   -0.062005655200499943
    94   3      8.0413570276593624      2.1645261134651848      2.0855150594908669
    95   3      10.266121776993476   -0.044681840147573378      1.9937981564462979
    96   4      7.7403801747609746    -0.26324441288514289      4.3308447213254766
    97   2      10.051212399492146      1.9884033723299641      6.0329455103160718
    98   3      10.162959092358616      2.2455162139329126      4.0869832330332381
    99   3      8.1504610246019826      2.2212122791116835      6.0465996173893188
   100   3      10.055933854511704    0.054800910552144221      5.9730101876409991
   101   4      7.7266168426410564    0.063403038050232424      8.0133493248449827
   102   2      10.129702660523307      1.9228383132397691      10.130027682531146
   103   3      10.167848482737929      2.1387869360186196      8.0843597954510411
   104   3      8.2016914438550579      2.3187625767893363      10.162000152447968
   105   3      9.9205023353952946    0.053206908805006656      10.137554144194647
   106   4      7.7850189387859201      3.9540776332559089   -0.039784033406696631
   107   2      10.035885470335904      6.0948128780816262      2.1475760267748578
   108   3      10.140330110005774      6.2148721904910831   -0.014062452984225478
   109   3      8.1153759244912838      6.1466180307978568      2.1171930408423925
   110   3      10.230061679752795       4.116839993605665       1.951362947863708
   111   4      7.9847079102384155      3.6830856959541647       3.975330180222322
   112   1      10.098085210396579       6.039968595674444         6.1138688033749
   113   3       10.33065099104306      6.0045029117868678       4.035447949583725
   114   3      8.0668993030419571      6.0742916412712402      5.9531845172369993
   115   3      10.463500619401568      4.0203493849086476       6.102524333458418
   116   4      7.7575230474901824      3.7984324385614712      8.2735909760040727
   117   2      10.086983205819388      6.0747136016899939      10.127724323956848
   118   3       10.32619428477434      6.0771977054487794      8.1365088302250559
   119   3      8.1635339633983506      5.8011964909632612      10.143725382974695
   120   3      10.441544888251853      4.0631614480944744      10.106860001025785
   121   4      7.8802718226922277      7.8329044318147618   -0.028224496071179762
   122   1       10.06306669008897      10.090532652817108      2.0190542434573495
   123   3      10.241207773714001      10.259785616861533   -0.052392952308812801
   124   3      8.0305201580544825      10.325802349661172      1.9442436475870251
   125   3      10.270315094912966      8.0701630888586973      2.0286349339389194
   126   4      8.0477900523957295      8.1487875367893015      4.4285789814369387
   127   2      10.240230207727812      10.099429489510587      6.1724115719364354
   128   3      10.079292120863814       10.34831139420047      4.0496197171673431
   129   3       8.152003641683649      10.262219468013393      6.0140615844122127
   130   3      10.038104307193278      8.1415276224201776      5.8361828662703976
   131   4      8.0806960187944679      8.1793182877372246      8.3268201621746201
   132   1      10.157333594191281      10.056705664071387      10.113941277598556
   133   3      10.061652450140214      10.053817873501295      8.0725873327881246
   134   3      8.1154563323299023       10.33848374965984      10.036596301364311
   135   3      9.7788118754206312      8.0369280440797493      10.126236350985996
   136   4     0.11018789856377548    -0.32770731713673096       11.96826163761852
   137   2      2.1965501652377606       2.021582932470825      14.195007805010849
   138   3      1.9602051160023404      2.1300318731697323      12.202220494210151
   139   3   -0.078860238210233427      2.2377825562586517      14.127908330465926
   140   3      1.9152256832663239    0.075791954951757431      14.166891147567398
   141   4     0.39365896560660513   -0.048487992139373132      16.342636937957842
   142   1       2.031792162446489      2.0325422190871789      18.205354618707382
   143   3      1.7842514926473869      2.0476544367775622      16.155264205240695
   144   3   -0.047893907772821806      2.3121596891528347      18.271775298067201
   145   3      1.8633816934159759    0.030262963214713647      18.251612491438451
   146   4     0.33054119464572351    -0.27166784835138158      19.990317061087055
   147   2       1.894859565607536       1.886256769107197      22.241164801090864
   148   3      2.0142634926371241      2.1420220076304148      20.331387205983962
   149   3    0.022455390322679871      1.9823177690237375        22.3566649963877
   150   3      2.1641018227571043    0.018543676130697236      22.377392914977474
   151   4     0.16941660123478489      3.7965178304413598      12.207712968011311
   152   1        2.02664718587403      6.0285885608655319      14.113289707106901
   153   3      2.0362253565062716      6.2194489219253652      12.103484217045191
   154   3   -0.061364993449575897      6.2205480727358147      14.130019220814962
   155   3      1.9398423282607113      4.0112635287549336      14.262539118567135
   156   4     0.20003641377627249      3.8214562959329523      16.026237192563777
   157   2      1.9960508048728309       6.076008197701209      18.107800558402833
   158   3      1.9087880290924697      6.0968161153161624      16.234514588436266
   159   3    0.044843201284718082      5.9825602844959382       18.48829370473436
   160   3      2.0743017768548375      4.1305482783517729      18.409786848417127
   161   4     0.14683967853475718      3.9491466467931344      20.017351801511463
   162   2      2.0196966028954852      5.9660044242533434      22.280705128168954
   163   3       2.074366772308339      6.2209267429850543      20.327996399708297
   164   3    0.055215852378438776      6.3023957007923279      22.265568291853999
   165   3      1.9907521003462405       4.085204943988443      22.310456539375462
   166   4     0.13590758200840886      7.7935148880233038      12.031829577518923
   167   2       2.081610088057825      10.128557539326565        14.0141328641086
   168   3      1.9170152495602961       10.14933467689217      12.156644868586088
   169   3    0.024987765279143023      10.213080741536187      14.399087076754848
   170   3      1.9446573908165341      8.1697886238281274      14.329607519099147
   171   4    0.063462865776288624      7.9370201117334354      15.844662433193248
   172   2      1.9083114721878194      10.080237176801244      18.173150982777788
   173   3      2.1055649588261844      10.130619653265381      16.285156589657824
   174   3    0.013017868820001041      10.343455412604632      18.241414761472143
   175   3      1.8755393404706862      8.1220977492070894       18.30732954814005
   176   4    -0.22660329212120053      7.7069822218748252      20.162277844086564
   177   2      1.8912622428563532      10.125024601665528      22.165695049167333
   178   3      1.9975772190939525      10.193836166366493      20.296601656196351
   179   3   0.0078177385793460862      10.158171461221736      22.501695948746566
   180   3      2.0976834766661132      8.2251563774678882       22.43372709170136
   181   4      4.0238846541544593    -0.23573485838048772      11.966044049662436
   182   2      6.2411575367599914      1.9825874116679967      14.114897813863523
   183   3      6.0395529338180358      2.0177222699242603      12.209020194044651
   184   3      4.0578354896177489      2.0533414288052025      14.281675472140739
   185   3      6.1446869030228957    0.099515725511398992      14.372883309945488
   186   4      4.1010836614114776    -0.40541067188866808      16.368234529583297
   187   2      5.9444339129609425      2.0230081704616549      18.103524918486666
   188   3       6.023036850518328      2.3203055255466927      16.221014595048597
   189   3       4.061248861826293      2.0495082348554727      18.352089555485012
   190   3      6.1648446130076699     0.11369966523467848      18.103817754821641
   191   4      3.8366804592165544    -0.32176439218422903      19.949166340983965
   192   2      5.9339665322499417      2.0642660841045894      22.160103977866711
   193   3      6.1070981717818631       1.917748980137427      20.293283070173771
   194   3      4.0548364385831901      2.1188838444979465      22.384166243307511
   195   3      6.0151263039732417    0.093323112368008165      22.593140043553944
   196   4      4.2437313617901333      3.9121691696062446      11.772907155596259
   197   2      6.0693715479250496      6.1114705452587916      14.055085494942153
   198   3      6.0896620111772091      6.2317334494628378      12.158035307951172
   199   3      4.0647310458346473      6.1865630432743934      14.332712377325223
   200   3      5.8957764149573819      4.0897845592617355      14.080320458786282
   201   4      4.2450466223455603      4.2643597973784626      15.933667500475671
   202   1      5.9984754338435184      6.0953633266741951      18.176793621859861
   203   3      6.0548832590345771      5.8251621624212131       16.18553565641059
   204   3      3.9578321921454522      6.1754727407493011      18.348007524622279
   205   3      5.9599762800028904      4.0198918674725359      18.528715335886726
   206   4      3.9645475767945864      3.9865042367191545      19.933746044362508
   207   1      6.0146133961692536      6.0234881128501749      22.337914457201112
   208   3      6.0844425352620926      6.2435563893586181      20.317223196376275
   209   3      3.9877828934896939      6.2537618038317602      22.364924773933257
   210   3      6.2786940557803339      3.9861223585673375      22.302128292851492
   211   4      3.7835892615396389      7.9028859494809076      11.881382782645913
   212   1      6.0190071248620125      10.102410692740161      14.106411360350224
   213   3      6.3766102973986962      10.008034048212597      12.090331661230003
   214   3      3.9895653906820114       10.00418682330964      14.235697696610433
   215   3      6.1081181967567693      8.0714683622236141      14.424855602664595
   216   4       4.047332443130057      8.0889206516787624      15.815069536523232
   217   2      5.9051972971327995       10.12116935801577      18.152706253171843
   218   3      6.0303569274062756       10.23049152369372      16.290730128915342
   219   3      4.0237173244083841       10.01032351120748      18.420236204492305
   220   3      6.2084813759379438      8.1837803807125198      18.268048720698662
   221   4      4.1636896795284537      7.6923613109761613      20.218470374627273
   222   2      5.9636066991676824      10.058687426818361      22.291361264055389
   223   3      6.2614842496908096      10.058882629047831      20.383676825577272
   224   3      4.0705695217281672      10.255238456294563       22.35517816509817
   225   3      6.1204685343111453      8.1942471023980925      22.560258019997974
   226   4      8.0567590225873307    -0.19045177555900991      11.860739158620019
   227   1      10.059710549814413      2.0768838407056371      14.203088414101392
   228   3      10.327675029233996      2.0878400406279956      12.077469804179859
   229   3      8.0727812414596194      2.1772987994362443      14.185328462075288
   230   3      10.217860830641886   -0.012279144005856097      14.241686302989432
   231   4       7.978199316068106    -0.31338664738842897      16.276888148538845
   232   2      9.9419167400894821       2.080247693522415      18.267177653010904
   233   3      10.242567908166958      2.0163786586465857      16.340865825628295
   234   3      8.0625896299119262      2.1742861521582491      18.313951903539927
   235   3      10.114156745822655    0.094443260598204168      18.412629047765655
   236   4      8.0300763735780869    -0.35968310691546113      20.152255073085819
   237   2      9.9993854664411188      1.9613322868543404      22.291158409693388
   238   3      10.204452738399185      2.0966685641750846      20.316686535419297
   239   3      8.1089281030186768       1.934212516846588      22.412964227114148
   240   3      10.320224201439407    0.063585207707051242      22.281776103901215
   241   4      7.8527336555740286      4.0227341884960968      11.861919713155118
   242   1      10.052950096375904      6.0991491042116426      14.133084300954998
   243   3      10.328861183182108      6.0798426562919889      12.115337444732049
   244   3      8.0282120827486079       6.080834086851155      14.327604045412398
   245   3      10.349563136834666      4.0814227432604593      14.199364662693677
   246   4      8.1189722263735291      4.5422805526806078      16.232545002338362
   247   1      10.066359041820784      6.0773510348161386      18.249484068431791
   248   3      10.173080226673124      6.0179483349615435      16.233839764953423
   249   3      8.0648178152597385      5.9620226988075631       18.35028665232802
   250   3       10.29376797225969      4.0100179159414919      18.303580487340167
   251   4      7.7152418420270301      4.3478025807673495        20.0398690656342
   252   2      10.015802011273111       5.955111008779463      22.293536895480308
   253   3      10.301521862308933      6.0857876063878944       20.36558180126276
   254   3      8.1525563497692133      6.2078894563893536       22.31045698732564
   255   3      10.123875893357733      4.0614360283773809      22.398900269945976
   256   4      7.9418655484986997      8.1561107874116949      11.934270095002997
   257   2      10.066135667373828      10.094525802556136      14.072353077978683
   258   3      9.9894079332804147      10.136698070870372      12.209797779714641
   259   3      8.1407038721287996      10.094177031852304      14.459801673553343
   260   3      10.117764850974366      8.1672008294170944      14.410673024727361
   261   4      7.9843509521878584      8.0958536033723725      15.932303013700785
   262   2      9.9992737530475502      10.126849040771228      18.272578640653062
   263   3      10.267069908772305      10.185013544091063      16.348715940791006
   264   3      8.1139732477459159      10.263139635717607        18.2476680253064
   265   3      10.166244154027467      8.1894280210975818      18.376315052088565
   266   4      7.8123707323803391      7.7890320941565365      19.978080610667668
   267   2      10.100703914689646      9.9670199066679341      22.273337904653324
   268   3      10.120729784576717       10.24957341242272      20.303911511955349
   269   3      8.1515976683682609       10.20208677633709      22.463070375768421
   270   3      10.264011066251101      8.0965914200709079      22.282242935556901
   271   4    -0.12002788370680713      12.317469641716132    -0.44426001689713873
   272   2      1.9003405946641827      14.161148360371934      1.9868593012591542
   273   3      2.1864358260053813      14.215123605561624    0.090334095528630143
   274   3   0.0033647189973242128      14.277956254347027      2.0693574985856942
   275   3      2.1631076718365283      12.258970580700169      2.1008706305099074
   276   4     -0.1874727483061884      11.872763995941735      4.1135381902176444
   277   2      1.9647426530942236      14.168533972121589      6.0286972552326645
   278   3      2.0836068596278348      14.366078591890934      4.0880459381819305
   279   3    0.082307796430957786      14.254514763603771      6.2441200436682402
   280   3      2.2331238127986595      12.261336829936807      6.0351088595646827
   281   4    -0.10716892036453068      11.861418469904775      8.0268415060913831
   282   1      2.0188854396758784      14.191324092710177      10.063069678265949
   283   3      2.3136755733787164      14.169299420616566      8.0392135900177415
   284   3  -0.0043353928402972159      14.200233616801492      10.209864671066606
   285   3      2.2184099571474483       12.13957820207847      10.156583609243837
   286   4   -0.048385525160531885      16.081893999217144    -0.41978117699884598
   287   1       1.976899616082187      18.232961285285128      1.9933223915985872
   288   3      2.2516945599390619      18.276283062222081   -0.011107510809332864
   289   3    -0.06507326211109371      18.234074047555861      2.1730564059536279
   290   3      2.1720473658878525      16.178910057171503      2.0443277163847342
   291   4    -0.14497859256124696      16.355799727555659       3.776086018578237
   292   2      1.9342495132395181      18.236432674863639      6.0481923285345269
   293   3      2.0365372721574322       18.07633701343439      4.1622069678630478
   294   3    0.060065400568745098      18.242403134657565      6.2942810700447103
   295   3      2.0918646649219901      16.243580295380831      6.2985614549087652
   296   4    -0.14820428999369931      16.127954574753396      7.9776413828187049
   297   2      1.9858385816194484      18.218374764787697       10.10853505854395
   298   3      2.3051950100160252      18.286352314582075      8.1525314752184208
   299   3    0.085969804693360283      18.362553696623973      10.139012454436459
   300   3       2.123571347704508        16.2671604392817      10.195631837784948
   301   4   -0.072190126604774363      20.370197559419907    -0.34995030271784244
   302   2       2.004582957720761      22.249742875784012      1.8692310737621995
   303   3      1.9987815511835669      22.223635697711963  -0.0051799304499133125
   304   3    0.062054726198372316      22.191449172091545      2.2236656003325255
   305   3      2.0768162965477459       20.27068239116003      2.2394827294684752
   306   4   -0.032797407034283382      20.301864436815276      3.6799989142250356
   307   2      2.0372848258974989       22.33890203575865      6.0615220285662463
   308   3      2.0604988757745262      22.313251136915625      4.1353009363689637
   309   3    0.016581691013385264      22.119659242653114      6.1677689204977675
   310   3      2.1753745573671028      20.190861398392357      6.1224365716081222
   311   4    0.029069272752298366      20.533904559530374      8.0558609007635926
   312   1      2.0485519922603443      22.257144557530815      10.112980851886393
   313   3      1.9836905993256067      22.035957509261557      8.0937838736458296
   314   3  -0.0042379164053966906      22.207450191641595      10.335139335924824
   315   3      2.3666389334150324      20.218199716546966      10.128034115848099
   316   4       3.739936251059055      12.072189641482778     -0.1043084713462962
   317   2      5.9810226356095066      14.114256676203878      2.0639469771466996
   318   3      6.1460401327104943      14.205571610240906    0.043005316348897288
   319   3      4.1024618568531954      14.292147434532904      2.1508175536632064
   320   3       6.072918522640447      12.236079233174729       2.089420282240444
   321   4      3.9487243508915446      11.866846221973359      4.0983326900659485
   322   2      6.0470136298192276      14.037037005337812      6.1290898541741257
   323   3      6.2552895690998671      14.360131435501925      4.0292735954658507
   324   3      4.1313890255241201      14.428133821579053      6.0154436217568987
   325   3      6.0099720335622981      12.181052770189362      5.9951192232204678
   326   4      3.6928180497563106      12.177762122387545      8.2969657658136278
   327   1      6.1023932431038181      14.137120368768599      10.079927986289261
   328   3      6.0606147950818663      14.260676264888257      8.0401042917520709
   329   3      4.0931045833624005      14.249414730783771      10.282432708397119
   330   3      6.0175951281703171      12.092033358602221      10.268244667923883
   331   4      3.6408935441733306      16.292196538173339   -0.015817587826728839
   332   2       6.102990882862338      18.202600090064976      1.9251665399688322
   333   3      5.9150054298106145      18.461278381414164    0.018482911560865189
   334   3      4.1199327152611076      18.236267696097737      2.2689451718755467
   335   3      6.1642195673621138      16.230747854694506      1.9296417107597497
   336   4      3.8034408875426102      16.292844226071015      3.8155438269657838
   337   2      5.9915089438638613      18.202330268625055      5.9864831295199989
   338   3      6.3213212649300665      18.161773640958618      4.0883300150254254
   339   3      4.1243735192956121      18.149660202455305      6.0568598416777322
   340   3       6.355385446892817      16.294823031106301      6.1536428646942714
   341   4      3.9177399784215154      15.910531570107953      8.0998355485263289
   342   2       6.116960936158077      18.147566888209848      10.032425540944164
   343   3      6.1373094688745971      18.380192767978954      8.1394815975328214
   344   3      4.1751527089852036      18.178557204157858      10.330496240299359
   345   3      6.1802030728551909      16.264596669683197      10.169847451282585
   346   4      3.8668921336377893      19.984062368817881    -0.20392229543483748
   347   1      6.0335583729603055      22.209590574508709      1.9680490928390739
   348   3      6.2159134333804005       22.21759452151921   -0.045694926586980933
   349   3        3.99166163207556      22.257574875000422      2.1777487754340386
   350   3      6.0467324586178117      20.201411643916597      2.2575178250462162
   351   4       3.969926355498818      20.224896526160581      3.6863527283100179
   352   1      6.0209704399090889      22.210905519174993      6.0852170307549267
   353   3      6.1044102230694293      22.400277589752459      4.0625025726963218
   354   3      4.0077901991019811      22.402427343683446      6.1841782058463037
   355   3      6.2396169280193403      20.188273242653874      6.0662344889834392
   356   4      3.7426752157892338      20.397109786066512      8.1220542500372694
   357   2       6.077971752094637      22.235363135819988      10.036286679641272
   358   3      6.2748443224023749      22.187444674532593      8.1384143262340523
   359   3      4.1578184903668856      22.455960577168351      10.168159501461021