(written by ASE)

1080 atoms
4 atom types

0.0      24.299999999999997  xlo xhi
0.0      24.299999999999997  ylo yhi
0.0      24.299999999999997  zlo zhi

Atoms # atomic

     1   4    -0.25147649886722007    -0.25266976508699396    -0.15037098571351129
     2   1      2.0830670586527473      1.9096885676567443       1.989035533750682
     3   3      2.0550701765681736      2.2047969104420666   -0.028068677897187071
     4   3   -0.055874903642086603      2.1158210034510589      2.0973308679598879
     5   3        1.93863198606731   -0.095297684548490316      2.1260150079526627
     6   4     0.32029921388963689     0.21069271091059172      3.8385393588109018
     7   1      1.9690151051857532      1.9895067483340954      6.0933860162303146
     8   3      1.9338525536438262       2.033172075785683      4.0542531905124211
     9   3   -0.072559400671804816      1.9250860897243185      6.1436921522923207
    10   3      1.8872890794077808   -0.062320714509594227      6.2144552631866343
    11   4   -0.046226877935913978     0.19476788748800863      7.8782679552075212
    12   2      2.0487071111020358      1.9047410789509984      10.028344244202728
    13   3      1.9537021372458254      2.0158626824220161       8.161388427194467
    14   3    0.045119055084557158      2.0219199157774557      10.356338155855061
    15   3      1.9682352822434934     0.01505042075118841      10.262074599207317
    16   4     0.19831565900889328      3.7060702806973689      0.1569607745597425
    17   1      1.9881399034281519      6.0702663452786654      2.0274510594107595
    18   3      2.0028608837500026      6.2287702552696578   -0.021462394728637802
    19   3   -0.078284687277618573      6.2046189119636068      2.1160397544200529
    20   3      1.9581424535120064      4.0570414780478208       1.992177559970455
    21   4     0.38875993351403237       3.788764775417679      3.7304894664471262
    22   2      1.9905390722710989       5.890721092876154      6.0571510150734289
    23   3      2.0678310278065948      6.2141983299862211      4.1320376839565363
    24   3    0.069399204970937309      6.1061040748946898      6.0980044536947116
    25   3      2.1215011029801167      4.0393336964645199      6.0737002598678691
    26   4    -0.42257718939688221      4.1758003871160945      8.0843109508463957
    27   2      1.9780534239918826      5.9697880055669525      10.149848182426778
    28   3      2.0550710406827357      6.1349355768307925      8.0932704746696285
    29   3    0.037541504911504008      6.1225435294248953      10.151164608324642
    30   3       2.039118172142802       4.036183888014012      10.243691341387622
    31   4   -0.092820537540787909      7.7787334621099493    -0.12066115533267198
    32   2      1.9338180090842609      10.067157946818233      1.9946468839123821
    33   3      2.1806841882597614      10.240647127087724     0.10516160955261836
    34   3    0.025480787824761087      10.333983604373273      2.1109244753227068
    35   3       2.005417048667411      8.2056108981510558      2.1344445098524623
    36   4   -0.080359035512671956      7.7331131404404712      3.9865053234353627
    37   2      2.0582859650908403      10.013276119379885      6.1081714081335745
    38   3      1.9479436562847092      10.357671015726542      4.0847949554949983
    39   3    0.026596944518255478       10.44385483596915      6.1440297032099922
    40   3      1.9368429275083412      8.1497625480387406      6.1252862412875393
    41   4    -0.21907084001140034      7.7390820278781174      8.1145699033448579
    42   1      1.9690526232254393      10.061125577241738       10.06068421510045
    43   3      2.0528881339655007      10.370794579581879      8.0217232101947413
    44   3   -0.067066671426553023      10.424704813458467      10.044279066514012
    45   3       2.122767088789721      8.0499022959972883      10.053795989894416
    46   4       4.132702375545044    -0.29004716909326439    -0.24938383070121287
    47   2      6.0899443777465958      1.8405747146007445      1.9950143649630641
    48   3      6.0842577909327114      2.2119890836368481     0.06646962649971927
    49   3      4.1148477968171191      2.1442711415104898      2.0288818724493893
    50   3       6.031220948148599   -0.024704237759587102      1.9760890634449992
    51   4      4.2252306324912103    -0.42810434343120124      3.9218573271349717
    52   1      6.0938040277840448      1.9944954133060122       6.037991952515501
    53   3      6.1253207141637631      2.0358888390257666      4.0018104836463566
    54   3      4.0366584825653051      1.9765157103328919      6.1833926085820661
    55   3      6.2370601574453186   -0.024703475078779631      6.2018029560532337
    56   4      4.1920228694857737    0.097093051404573388      7.6058434115588893
    57   1      6.0799643848111025       1.978876760790802      10.115972902918754
    58   3      6.1526724318556854      2.1669327724281451      8.0936321605792898
    59   3       3.995197841252875      2.0428851090717273      10.192569748408916
    60   3      6.3508632920362729   -0.030231365760869065      10.031790699836908
    61   4      3.7683659424957363      3.7961672271399043     0.29412103251919552
    62   2        5.93909777490948      5.9580658195781746      2.0161208608788845
    63   3      6.1614801625479521      6.1487494626918657     0.11028075348708201
    64   3      4.0610374486759815      6.2484889037175364      2.0374978626219495
    65   3      6.0478097593831857       4.102670668968214      2.1879801967621355
    66   4      3.9295944915655143      3.4322349982972504      4.1282980928340169
    67   2      6.1111875147316645      5.9945719905879278       6.121210802237889
    68   3      5.9885806448344034      6.3616166633149689      4.0262408978448034
    69   3      4.0274992174294262      6.3240645263736726      6.0940346069732225
    70   3      5.9016356434125354      4.0954717764433912      5.9961035449525832
    71   4      4.2369041302997497      3.6007922159726173      7.9062099138950108
    72   1      6.0687132534564059      6.0442417571234817      10.083989293923267
    73   3      6.1124817239350824      6.1002201032549657      8.0438214327739264
    74   3      4.0298665697137217      6.1978258626660967      10.113935647623908
    75   3      6.0670724961160802      4.0346773809725685      10.345374930812376
    76   4      3.8659619268253933      7.8146161878092411    -0.11579686875236596
    77   2      6.0410709540647236      10.043928138094403      2.0678599391710866
    78   3      6.0662742729618433      10.386673437312457    0.051633749664760073
    79   3      4.0605741972633078      10.242023193498182      2.2059700352936709
    80   3      6.1429836372243658      8.1619560447688393       1.940970827972603
    81   4      3.9281331999764713      7.7850839050615717      4.0697969378579471
    82   1      5.9912848829084728      10.106825158209245      6.0903311517924905
    83   3       6.221889734493649      10.169431204935584      4.0097350149144386
    84   3      3.9685721165772314       10.13713888604207      5.8967271587084227
    85   3      6.3117592436043575      8.1025907858779611      6.1220951836844923
    86   4      3.8718769356442837      7.8128038394265671      8.2550200312405302
    87   2      5.9600752336583156      10.129658072709159      10.105612457701001
    88   3      6.2556455470836454      10.147713977305489      8.1374180986791469
    89   3      4.0720831866334413      10.006618090383832      10.132818844269197
    90   3      6.3361615347019944       8.117542623347175      10.039014135579629
    91   4      8.0161056741435033   -0.096066900125943641    -0.32706412099621368
    92   1      10.098043411415837      1.9537454505262857      2.0666058126993434
    93   3      10.131736530938605      2.1788662761019593    0.015410129005392981
    94   3      8.0510339848532677      2.2175950158510007      2.0343691542275817
    95   3      10.243925181985071    -0.06096663345868869      1.9281144134314334
    96   4      7.7432549021064379    -0.25537911560326165      4.3329487909897253
    97   2      10.072896743486139      1.9679669871935155      6.0273745936187657
    98   3      10.161129226156707      2.2142339723387217      4.0806673563136053
    99   3       8.157259666451143      2.2475710509432849       6.041223011830497
   100   3      10.028866161632056    0.039136347716599969       5.987821433388965
   101   4      7.7369943654840831   -0.043751478010550869       8.039648038552599
   102   2       10.11805045716196      1.9054157091320265      10.134039608787864
   103   3      10.134882214200337      2.1619389106372222      8.0751769526146759
   104   3      8.2006002701967695      2.2998766677552687      10.152311579418637
   105   3      9.9601638780482187    0.037946125789210479      10.103695462967766
   106   4      8.1437049166417044      3.6532912807032214    0.027222091998511319
   107   2      9.9842776370203303       6.105103396840172      2.0934774246090448
   108   3      10.228865934278856      6.2233927746297741    0.018369502354534582
   109   3      8.0936666842838321      6.1399236602472218      2.1320308505144081
   110   3      10.294141291661177      4.1729618917597593      1.9734031448034022
   111   4      7.9774606893655493      3.6900211269839063      4.0346971854268663
   112   1      10.066847406389257      6.0177640559409822      6.0764850854631192
   113   3      10.364147194227087      6.0633794161293748      3.9892034790626321
   114   3      8.0302165187899028      5.9937372657049659      5.8821769830715169
   115   3      10.456040891550989      4.0141756896978977      6.0732865918091905
   116   4      7.8405603878435688      3.7518451206901489      8.1748948803100383
   117   2      10.071176699620263      6.1191738126513737      10.082099225240505
   118   3      10.322050113526563      6.0531341359051725      8.1122515002435271
   119   3       8.159384059779784      5.8553205641523336      10.194752924250176
   120   3       10.40998900893735      4.0655665015842848      10.112727377054176
   121   4      7.8195418989074614      7.9171179805088059   -0.092518745616475273
   122   1      10.046051646314098      10.101670966814627       2.036837682922406
   123   3       10.30569933202827      10.170235733622851   -0.035473055868756688
   124   3      8.0297905090759603      10.353129564786345      1.9535949351893784
   125   3      10.294215709989574      8.0758331563123065      2.0177435291417614
   126   4      7.8547432660318561      8.0053724751848705      4.3279171205104543
   127   2      10.142789659436247      10.016893370006947      6.1236211183801981
   128   3      10.095602540940297      10.338954325692104       4.066510113373182
   129   3      8.1588284251372354      10.350169939493632      6.0682437011437633
   130   3      10.032339826388979      8.1128319344598037       5.896445391039733
   131   4      7.7452856752776906      8.1061450875797636      8.0682536376619733
   132   1      10.150478722119459      10.058886347283389       10.09319829774198
   133   3      10.131523027796979      10.211416251286916      8.0561057867179375
   134   3       8.120329609860601       10.32005490862074      10.126006455358826
   135   3       9.917876037538031      8.0520854363086869       10.16156178443017
   136   4    0.074659762540233404    -0.18959351474860031      11.847145297051643
   137   2      2.1808930123210488      2.0612692281094178      14.159514661167806
   138   3      1.9862487557164068      2.0533019471919092      12.224328164878933
   139   3   -0.072177988263783882       2.222368680382969      14.140254634259673
   140   3      1.8861615120235562    0.027654284053753385      14.267422645147777
   141   4     0.32874316097205403    0.023318738324862125      16.199639694899616
   142   1      2.0492672403600927      1.9733058540876272      18.204169521907691
   143   3      1.7521379215843826      2.0230170416139273      16.167839603553698
   144   3   -0.044473639682917461       2.287276520649125      18.295137479495704
   145   3      1.7225414737299323   -0.040258839442988255      18.204971297251831
   146   4     0.25066966749588249    -0.23751062306731319      20.093410112197269
   147   2       1.955037351326838      1.8684807221251509       22.24681586326588
   148   3      1.9789504841708778      2.0961951461433825      20.321179296703757
   149   3    0.060213066297790732      2.0650344334379969      22.377547703116488
   150   3      2.0824813013128081   0.0029547308647018284      22.363961789147819
   151   4   -0.023386729086121241      3.7250628335621343      12.088846257093941
   152   1      2.0219964570095912      6.0239121364841015      14.117474138087063
   153   3      2.0434576023165558      6.2473649776107303      12.099855317083627
   154   3   -0.060380093069048478      6.2091573034799614      14.127696634030656
   155   3      2.0143310243860291      4.0006499644640918      14.299776350184935
   156   4     0.19903931651848375      3.7903345788290301      16.055977102193033
   157   2      1.9884944577471702      6.0515475090627575      18.123071055589357
   158   3      1.9253017196331685      6.0772729756158359      16.245448897721825
   159   3    0.043367376695218972      6.0018561422615573      18.461426720865052
   160   3      2.0700636773974508      4.1096321665734221      18.420454090834731
   161   4     0.19983132557547834      3.8841628394154801      20.068637198632729
   162   2      2.0197440332769916      5.9721836968015518      22.292355374518259
   163   3      2.0577329591329199      6.2331585285289055      20.330518256396484
   164   3    0.060452343092176106      6.2986923687791219      22.283625112232826
   165   3      2.0266380008653671      4.0928237580294393      22.288666130311142
   166   4   -0.078044936108641855       7.710984900577909      12.080744772998219
   167   2      2.0585451901186422      10.099416153574255      13.996311211745716
   168   3      1.9491655918348667       10.09924672111133      12.138254720194398
   169   3    0.024822270823120718      10.228112730252883      14.365262881464249
   170   3      1.9545689453410453      8.1589195581091847      14.356946339314216
   171   4    0.024976811176949342      7.8684612783392183        15.8680289351243
   172   2      1.9066618562334958      10.072185157233415      18.168205547031043
   173   3      2.0950584075324969      10.156491385798041       16.27930274023732
   174   3     0.00949178410235515      10.325976914629962      18.245706006423084
   175   3      1.9059481720866236      8.1204075026737073      18.291515682719272
   176   4    -0.21486306429926738      7.6928210842548772      20.164337736177373
   177   2      1.8921161207987307      10.128502277389913       22.15154424954105
   178   3      2.0124744553045986      10.192712363307463      20.284585964827361
   179   3     0.01380372800286883      10.152061972014835       22.47912737884263
   180   3      2.1151056985048111      8.2341669880866881      22.434237340316091
   181   4      4.1301096531262438    -0.20893619318710216      11.939449319612656
   182   2       6.250017356388871      2.0235851310043218       14.09077093401355
   183   3      6.0072916537024641      1.9269235335197588      12.199206304584445
   184   3      4.0446045539479281      1.9555936142059984      14.304926969479151
   185   3      6.1127612153960165     0.10165885319333683      14.412114073037367
   186   4      4.3543001870762295    -0.30424695820704595      16.059106439897999
   187   2      5.9395003388143834      2.0068990791693411      18.108073847130733
   188   3      6.0237741649061851      2.2672874875702744      16.222722056731268
   189   3      4.0691371666416796      2.0269696325788842      18.364628601895745
   190   3        6.23828272185232     0.10169677313270717      18.154615109140011
   191   4      4.0949043684054685     -0.3388840997440406      20.275203942104717
   192   2      6.0135253492724186      2.1235076180649313      22.177759076720903
   193   3      6.1387897364938873      1.8716978659006436      20.303430822774224
   194   3      4.0733967020233539      2.0575855279460495      22.386823974594094
   195   3      6.0498576826406802    0.075378355935690811      22.570618816325425
   196   4      4.2894396423859336      3.9197449504679378      11.779014688861524
   197   2      6.0805429084065326      6.1398216825800951      14.052762045159286
   198   3      6.0684244840507064       6.218918486182087      12.160600151298265
   199   3      4.0672034761570242      6.1757532438791136      14.334228441814087
   200   3      5.8626075346863518      4.0548549269711458      14.059542615875037
   201   4      4.2239139178846532      4.2756125397996589      15.921970838994454
   202   1      6.0024268895373822      6.0890848807171789      18.165809711029798
   203   3      6.0579176196507989      5.7964574849705439      16.173107775968397
   204   3      3.9627675360105243      6.1404832905698363      18.363886745252913
   205   3      5.9679186539920579      4.0033903187357245      18.541120462291882
   206   4      4.0016247075869371      4.0093586446127185      19.934134410754702
   207   1      6.0276079235633837      6.0194490213231067      22.338286041258939
   208   3      6.1024645388621508      6.2647575778130991      20.308170280399207
   209   3      3.9954723944988744      6.2793514085531754      22.340660232591617
   210   3       6.179878271857973      4.0112218986601826      22.193011607019798
   211   4        3.80736775380959      7.9294956032329118       11.85572730976391
   212   1      6.0068487687534047      10.115234842485615      14.105952975258042
   213   3      6.3225915691778907      10.008386455092381      12.092797426450705
   214   3      3.9779195677517327      10.003682666287524       14.25251607604538
   215   3      6.1111232320600282      8.0712365672710629      14.420342120754702
   216   4      4.0068513026740851      8.0866677592428395      15.815986083844338
   217   2      5.9077780536710831      10.129411743023487      18.134541938249569
   218   3      6.0473352236797107      10.229070774769871      16.274366605585449
   219   3      4.0275939905991258       10.02564479139706      18.388281663711432
   220   3      6.2126869454185814      8.1866943850118989      18.246411527965908
   221   4      4.1662715728252557      7.6933820869027949      20.207651986129044
   222   2      5.9618819993053087      10.105185387637587      22.262655769630783
   223   3      6.2610723658646759      10.066909377474994      20.367724678129985
   224   3      4.0711203065225829      10.271192646628446       22.35543048870742
   225   3      6.1084686314964101      8.2270667330858966      22.559806812718062
   226   4      7.9571339220081718    -0.24287720848608793      11.866007612031002
   227   1      10.079451953520124      2.0741209182250344      14.163174478780705
   228   3      10.344844377730672      2.0736110104014021       12.06556885816377
   229   3      8.0838689445941672      2.1471188573031341      14.163290226494198
   230   3       10.21223336980893   -0.040738194054838674       14.21905469983494
   231   4      7.8729477503109049    -0.34285462814890377      16.102514725877906
   232   2      9.9365292716645701      2.0548341865005804      18.192098986757795
   233   3      10.235163627612383      1.9949510015553948      16.301446957411407
   234   3      8.0667638103398644      2.2104398998133719      18.293853187643929
   235   3      10.076044327579941      0.0724731825382606      18.439699703921626
   236   4      7.9854714063802348    -0.30992661827913365      20.083632721449735
   237   2      10.197124446776627      1.9551133347589014      22.214909170671454
   238   3       10.07991032093606      2.0752995026045733      20.316614095968475
   239   3      8.0852723416557168      1.9684662758290477      22.545501826630858
   240   3      10.145642719214273    0.041949097895065263      22.458300675467523
   241   4      7.9051608973398677      4.0584319511086928      11.824831916534624
   242   1      10.051383819367203      6.0995079880137242      14.108855602038476
   243   3      10.356074156910386      6.0574099238074615      12.095256393035699
   244   3       8.029232115355601      6.0532359496214472      14.304515081207059
   245   3      10.371102176952339      4.0786483077480256      14.172985627588252
   246   4      8.1221996244151971      4.5462407320354234      16.229183899773293
   247   1      10.074634970786349      6.0826348979601752      18.237488751429051
   248   3      10.189254161301417      6.0162113957566703      16.221736902950678
   249   3      8.0702443376118378      5.9478820409134494      18.313000777270439
   250   3      10.304908069154136      3.9867357207025869      18.311264319935653
   251   4      7.7517021259991337      4.3417612018960359      20.014921438142252
   252   2      9.9959020674538372      5.9877107651345094      22.304823981187479
   253   3      10.235373768193835      6.0920751339276213      20.379474436446785
   254   3      8.1416205447865764       6.261829619039224      22.376028208885398
   255   3      10.058556154215072      4.0897992584789957      22.408497022878219
   256   4      7.9746745781703874      8.2028435486127513       11.79912855657169
   257   2      10.074565127674877       10.10448900703644      14.068774099331604
   258   3      10.043250704912392      10.173523605596777      12.208207963728352
   259   3       8.145291314773667       10.11530712125421      14.435844041094931
   260   3      10.112471678907617      8.1726809279272583      14.398155147974968
   261   4       7.983197690755973      8.1336159347806518      15.926034033169618
   262   2      10.000850642363448      10.143468247049814      18.244219398994975
   263   3       10.28779685930609       10.15355247090535      16.335506888712036
   264   3      8.1178163507183196      10.255205414610653      18.226547045462155
   265   3      10.171921872587772      8.1944410881139866      18.377423796396535
   266   4      7.8123678269508057      7.7992498177744523      19.952548887026047
   267   2      10.086294879166788      10.011527853632034      22.244212307752051
   268   3       10.09620494101098      10.253636736682681      20.302091634694502
   269   3        8.15167484333349      10.183440003209377      22.507511863411288
   270   3      10.267002229452007      8.1185454197100775      22.318275479338084
   271   4    -0.11065321299636122      12.333549881449507    -0.45126794668830417
   272   2      1.9190162445160883      14.178033946295974       1.983310576509318
   273   3      2.1901874288553582      14.194231233907031    0.085807531502001544
   274   3    0.025976633673026155      14.250279006233921      2.0827273429697573
   275   3      2.1555169698968393      12.250547290887555      2.1431337398422849
   276   4   -0.093582269460142115      11.961100999292746       4.014326833946293
   277   2      1.9634031906693337      14.185818957676016       6.045211277353304
   278   3      2.0954155564043009      14.359980946214757      4.0963379634197601
   279   3    0.083757401715216839      14.234027262838437      6.2560732760178182
   280   3      2.2207716845641268      12.278604368113044      6.0477499407762645
   281   4      0.0176035800373305      11.909656040237405      8.0880053520945125
   282   1      2.0252139028241318      14.210153217188845      10.071267752325008
   283   3      2.3181553228372866       14.18100747662913      8.0509876523190123
   284   3   0.0096311901404794002      14.193176173678035      10.238057438445727
   285   3      2.1965451972820378      12.153939688892203      10.164979262247236
   286   4   -0.067512143471252409      16.059516148611948    -0.40663486518278275
   287   1      1.9717090324620641      18.226897011393628      2.0007201420570362
   288   3      2.2810122015587733      18.249332374626359  -0.0023860562053347411
   289   3    -0.06446005512769043      18.227294823004829      2.1825011969582433
   290   3       2.167103625036694      16.171296777428218      2.0435501478335767
   291   4    -0.14099327702566605      16.364065521547573        3.79094661926788
   292   2      1.9281348892568162      18.253255777352432      6.0553756899237712
   293   3      2.0390497346068943      18.065621601200512      4.1634414421586774
   294   3    0.058169975143550497      18.238432911907267      6.2797438753404391
   295   3      2.1046536731511525      16.245134562613657      6.2876339290662546
   296   4     -0.1867808433785432      16.180042996881394      8.0069209292212893
   297   2      1.9942925667098965      18.231845891741013      10.101673059840374
   298   3      2.3114633311417374      18.269728981181693      8.1430597498237969
   299   3    0.093975423082025819      18.353047202363296      10.124821671413359
   300   3      2.1316407389841063      16.277162644143328      10.215320736261329
   301   4    -0.10032979647899191      20.407729895690618    -0.31695120158012791
   302   2      1.9860653026385902      22.265697889726937      1.8716057592478101
   303   3       2.058534474501116      22.233155001497458  -0.0052616562536099637
   304   3    0.052843907938570904      22.116351498360594      2.1193213557534922
   305   3       2.105541754295813      20.260734053967628      2.2184756863523223
   306   4   -0.031268464987615249      20.312877116046959       3.668237501011594
   307   2      1.9887813698604342      22.337463551337287      6.0600416078003052
   308   3      2.0305108329854931      22.277597602245827       4.123676862416283
   309   3    0.001637389392103196      22.086255511113627      6.1549530158533718
   310   3      2.2132793222574834      20.186047510793621        6.09863142476466
   311   4   0.0089596523120934763      20.587688554789583        8.18453396122184
   312   1      2.0484908290667496      22.273159080196614      10.092661990167215
   313   3      1.9906934083192172      22.043629505903318      8.0729420458461778
   314   3  -0.0052288082623407383      22.170436393909867      10.259340023787303
   315   3      2.3684068140737038      20.224785450028573      10.104238535918565
   316   4      3.7556020695876735      12.113217823922398    -0.14965243769765713
   317   2      5.9731429745207283      14.125773583030712      2.0793520955950413
   318   3       6.143672347324558      14.183095383861712    0.048908463386255173
   319   3       4.098467426940803      14.284638184627552      2.1500269149536915
   320   3       6.075220881382787      12.240011763690061      2.1109068877847621
   321   4      3.9412312368646623      11.876002096695583      4.1302864899740008
   322   2       6.053366985006372      14.040185149369846      6.1403759827475906
   323   3      6.2503536217425406      14.362752903027474       4.032409507249147
   324   3      4.1367970164805206      14.440766989654584      6.0239653514042848
   325   3      6.0002544693133499      12.186706953830207      5.9936258514883605
   326   4      3.6953777399624861      12.170935729502952      8.2914008325905986
   327   1      6.1005298762617652      14.145107405833633      10.083368581338489
   328   3      6.0646255931718587      14.273849666765235      8.0476435238100699
   329   3      4.0929487831768405      14.254327699800681      10.296607433370419
   330   3      6.0371886205120848      12.108149636943866      10.262934356869186
   331   4      3.6551979702825768      16.300065025375989   -0.032768646798977494
   332   2       6.062518838924202      18.213272213950383      1.9458938049426904
   333   3      5.9109825014779256      18.433924161751875     0.02999392148739375
   334   3      4.1185150655742895      18.204944914284649      2.2791168585079893
   335   3       6.189930643703641      16.220938188716687      1.9213183016780404
   336   4      3.7847994079446785      16.288684799166909      3.8689247463549497
   337   2      5.9905294446994706      18.208091568863225       5.990225774920253
   338   3      6.3452653161776347      18.146286716968564       4.081606809081527
   339   3      4.1277373868970573       18.12354713081011      6.0387181167803945
   340   3      6.3775957229519324      16.297047249278116      6.1348763723777067
   341   4      3.9145409528650652      15.925987972874829      8.0907909558504443
   342   2      6.1158777594411307      18.139565541823583      10.012945739513921
   343   3      6.1338303089737591       18.35275596521884      8.1175083250360256
   344   3      4.1791650129323257      18.178509845068781      10.326254690413736
   345   3      6.1895007037391183      16.260649138933882      10.169679301808651
   346   4      3.8302150763438876      20.002052236559919    -0.19503601124353345
   347   1      6.0381209715690201      22.211633522300122      1.9628526750742024
   348   3      6.0205491805259728      22.194061702854771   -0.047710744568863754
   349   3      3.9910621242229642      22.262092739118483      2.2103582389297136
   350   3      6.0592028859909615      20.191171280529286      2.2483875636676154
   351   4      3.9288077878910337      20.257578994994169      3.7052611856236233
   352   1      6.0099235523294743      22.211000062854033      6.0887916428099667
   353   3      6.1281480319300758      22.390018150516472      4.0589983165326844
   354   3      3.9948332351914191      22.411514878644223      6.1556219264902321
   355   3      6.2106854086093461      20.190103200302811      6.0550435669570239
   356   4      3.7589604085902195      20.432046363603661      8.1108832476098005
   357   2      6.0385119789022292      22.216919570327132      10.095753289159338
   358   3      6.3073409781154721      22.196611813740791      8.1330205180859974
   359   3      4.1270755934573993      22.451168154838232      10.070829634364625