(written by ASE)

1080 atoms
4 atom types

0.0      24.299999999999997  xlo xhi
0.0      24.299999999999997  ylo yhi
0.0      24.299999999999997  zlo zhi

Atoms # atomic

     1   4    -0.25605833443861242    -0.24293776062710823    -0.13676090540269237
     2   1      2.0086459777274599      1.9356131876992151      1.9617340596588055
     3   3      2.0128841994927154      2.2676292172093846   -0.037688092551638963
     4   3   -0.066250797657574259      2.2284064001364756      2.0209421223355712
     5   3      1.8659623146288127   -0.071830081043438687      2.0834640117643421
     6   4     0.39207048462594102     0.18760435173471832      4.0207750241893336
     7   1      2.0061987826362424      1.9837187764070299      6.0822936539677546
     8   3      1.8968175426691489      2.0402211693000223      4.0527407809935205
     9   3   -0.056211192228401652      2.0771086353358172      6.2401492281311537
    10   3      1.7835404473169671   -0.054452114250728378       6.109394360332951
    11   4     0.12917331603250112   -0.018983436770767956      7.8449407603298775
    12   2      2.0455058998501547       1.905666421452701      10.070045820432162
    13   3      1.9274198011964754      2.0307686914268284      8.1770066593230482
    14   3    0.014236598185123876      2.2272549436760811      10.264110352777312
    15   3      1.8902141434212729    0.036122202472990028      10.255131594807448
    16   4  -0.0035977765286448883      3.6713091739059882   -0.050411535139311049
    17   1       1.993941343822359      6.0752885448945158      2.0478941898983001
    18   3      2.0748409664333654      6.1437515988875058   -0.016104849399975658
    19   3   -0.074595200061995395       6.121268986980331      2.1433505932294583
    20   3      2.1375856319056825      4.0661977813477108      2.1588360510075835
    21   4     0.32439138100097542      3.8152131377719347      3.6986721370939568
    22   2      1.9481550007998709      5.9226413015793051      6.0771992127092398
    23   3      2.1030249136031935      6.2202285186852153      4.1510752827163868
    24   3    0.053265331144233569      6.0627711711519812      6.0754175638794852
    25   3      2.1369376142977421      4.0575835856341671      6.1154916252573868
    26   4    -0.12091617327750648      3.8095004544476772      7.9244311091151998
    27   2      1.9744812670849852      5.9873048875698869      10.170531936645732
    28   3      2.0872851990256134      6.1901534868397921      8.0879538025639608
    29   3    0.027985257223993375      6.0265063494669624      10.166070390849621
    30   3      2.1268634171043681      4.0637608405063288      10.167100628571818
    31   4    -0.13771668077898333      7.8152639066297871    -0.14684698017349279
    32   2      1.9307874796548301      10.040098645621104      2.0075220809725733
    33   3      2.1996193715539949      10.255121754471025     0.10712003771225639
    34   3    0.035217168554686332      10.347073210953402      2.0778699578550204
    35   3      1.9900221519298569       8.183050984591711      2.0916755331879364
    36   4    -0.11849590648372191      7.7400638703374671      4.0133061066214477
    37   2      2.0650417979827007      10.025964541011554      6.1108073587498515
    38   3      1.9820611657867884      10.338664684259282      4.0472079967078276
    39   3    0.056185633356100287      10.433546467406057      6.0790723732160847
    40   3      1.9237311211578336      8.1572906389223121      6.0891705618832344
    41   4    -0.25252081565480605       7.959673913904969      8.1933390199375928
    42   1      2.0253389968656572      10.074552875847273      10.056503099196899
    43   3      2.0826817351365188      10.336823077897673       8.011812198483284
    44   3   0.0036737148833913252      10.318855017930719      10.076733154467789
    45   3      1.9420548326172922      8.0607962773210282      10.152964689251107
    46   4      4.1543074655140213    -0.28371577346033139    -0.24780320268759781
    47   2      6.0684987770525325      1.8407719516831473      1.9835609791023376
    48   3      6.0754636090119281      2.2327326064381716    0.055211591727573589
    49   3      4.0997282646878315      2.0993979393776661      2.0294132842652761
    50   3      6.0583965982161843   -0.025191135728304767      1.9193673953473678
    51   4      4.2614966705861335    -0.36428720874545251      3.9752475696208873
    52   1      6.0574318424285556      2.0082296547018523      6.0143819457536472
    53   3      6.1863983340590565      1.9694840520792343      3.9831387717639331
    54   3      4.0298188081759569      1.9382877898427702      6.2425646944165472
    55   3      6.2321964185838263   -0.016282380448469681      6.1942461329840377
    56   4      4.1907962792599172    0.094688827606948203      7.6373802645072955
    57   1      6.0621905652359818      1.9834376168787107      10.122412527430422
    58   3      6.1632372566654583      2.1387993670628469      8.0974170997890571
    59   3      3.9820235881358079      2.0180869999104893      10.195557780393225
    60   3      6.3452730384992302   -0.029602185226589403      10.027546727690185
    61   4      3.7139971079321912      3.8354888516437819     0.28666540367749233
    62   2      5.9389989004576744      5.9641186615213968        2.01000406670039
    63   3      6.1491711655204879      6.1397219249601083     0.10420885382567702
    64   3      4.0747769021333919      6.2787516268761392      2.0456567481789816
    65   3      6.0157862950138066      4.1017441937863577      2.2063863322672197
    66   4      3.7638144333564578      3.5654019549529297      3.9413373606486539
    67   2      6.1186955634746392       5.978456920755562        6.10045504713145
    68   3      6.0146992773160619      6.3592022000323514      4.0270097559948903
    69   3      4.0495629769594412      6.3546963195627102      6.1040818845301557
    70   3      5.9102263546397369      4.0876954176064721       6.012378829738827
    71   4      4.2088984428520329      3.6044793797271244      7.8769155981613332
    72   1      6.0601648995301378      6.0523545332124602      10.080525341722353
    73   3      6.0962005994593627      6.1399384794648899      8.0356335899873361
    74   3      4.0302086852422185      6.3135009962700748      10.076941351876666
    75   3       6.044416531577598      4.0415608560341179      10.339168875972055
    76   4      3.8562182231357256      7.8152230817389983    -0.10593062383415357
    77   2      6.0433723958354664      10.043748639742281      2.0616611085573213
    78   3       6.079110831339106      10.389973126981193    0.041170448948123252
    79   3      4.0768070169242092      10.222149155102191      2.1775277677112399
    80   3      6.1858441471984964      8.1607079969614933      1.9294808881000134
    81   4      3.9496206889486785      7.8088217456801559      4.1291666267607363
    82   1       6.006919012030199      10.113469236876602       6.090205547991383
    83   3      6.2366519567100163      10.171566736301575      3.9998486127064776
    84   3      3.9878466179772118      10.104163077341932      5.8644913933324538
    85   3      6.3165085245233863      8.1088228762331251      6.1063632437845499
    86   4       3.950985448947907        7.77189957878063      8.1728046982068232
    87   2      5.9677151840194522      10.115055601204523      10.101550062429908
    88   3      6.2493095394419589      10.151504059726166      8.1373475752786089
    89   3      4.0830187977664485      9.9346524294234708      10.157672015627144
    90   3      6.3841329866493641      8.1183407685684443      10.044040543266707
    91   4      8.0464900975479718   -0.079298398442117043    -0.31596802554026665
    92   1      10.099337006920534      1.9523461959237889      2.0575530370068393
    93   3      10.125942249533137      2.2049005417479686   0.0062173495784244616
    94   3      8.0513199953981545      2.2430737955091749      2.0005797065298134
    95   3      10.215032105664777   -0.060043316000192443      1.8979612543785778
    96   4      7.7500931794238648    -0.22802158392300703      4.3254125644636732
    97   2      10.066142685591773      1.9739220624270479      6.0257938364326176
    98   3      10.159930497669004      2.1980204267238781      4.0772573621177131
    99   3      8.1549485798587931      2.2448160933473207      6.0470867795885708
   100   3      10.030258324502244    0.039892019534003446      6.0061816278917801
   101   4      7.7157327218184193    0.010790700176074496      8.0323125512153926
   102   2      10.115549012714498       1.904686832846419      10.133438933189449
   103   3      10.130165671984464      2.1731119596643707      8.0770832761579729
   104   3      8.1985915275003176      2.3046512318774139      10.155724609471534
   105   3      9.9685577965878576     0.03811199239809502      10.089788968601669
   106   4      8.1454841023553879      3.6626068441288426    0.043370312074569095
   107   2      9.9925703118672171      6.1072720858250626      2.0962613462477724
   108   3      10.270094200266875       6.187143754333996    0.010916314011926746
   109   3      8.1010330668790509      6.1093589336924259      2.0993054330537118
   110   3      10.318074380145291      4.1690820133712378      1.9862327553097658
   111   4      7.9625203392409469      3.6706993927187641      4.0082092446408097
   112   1      10.069461370956573      6.0122250148402667      6.0747085992632384
   113   3      10.348554624712127      6.0734751940501202      3.9896593862149397
   114   3      8.0384181735809186      5.9987220703590802      5.9038245665746381
   115   3       10.45782607326808       4.009531668007523      6.0628567445477026
   116   4      7.8227122242436309      3.7471352675055836      8.1695356927652103
   117   2      10.063907680098616      6.1149561847249219      10.082591890930125
   118   3      10.322283822850395      6.0453490380617279      8.1105394161040198
   119   3      8.1536292487880555      5.8424219886359117      10.188521745133452
   120   3      10.416550927079969       4.065243447125134      10.119941798722481
   121   4      7.8291545606407515      7.9118379608353226   -0.080804759859006439
   122   1      10.049094872834043      10.103364305361252      2.0331112712627979
   123   3      10.317279557943092       10.17563424226252   -0.039125314166929666
   124   3      8.0379078208948709      10.366495465887928      1.9419437155643056
   125   3      10.270979455477136      8.0721393023468035      1.9832441897887902
   126   4      7.8617054509121536      8.0100423777718852      4.3286646719134332
   127   2      10.135993514335144      10.019042021713689      6.1153402161465573
   128   3      10.087517737468609      10.336014213005873      4.0647575255482655
   129   3      8.1598507200575945      10.355659380025555      6.0715716117571841
   130   3      10.037079134984287      8.1129891590665224      5.9078179164376872
   131   4      7.7565384613029247       8.080405675621936       8.057951250535428
   132   1      10.155363558507451      10.056995054651535      10.095429388497152
   133   3      10.153391692917396      10.225476762229853      8.0538347995626154
   134   3      8.1257826149192542      10.344744711916517      10.112085867363113
   135   3      9.9074887144428914      8.0497003576129043      10.149390951216006
   136   4    0.049281651500680014    -0.28750934583196996      11.928100204167501
   137   2      2.1785891541181859      2.0524631367061761      14.170872773111636
   138   3      1.9383171095172862      2.1181143867811141      12.210404964843713
   139   3   -0.076575228425327768      2.2596456042194242       14.16160001665383
   140   3      1.8825659147360745    0.047840774153546289      14.250212511440042
   141   4     0.32774244599358132    0.030508913837110518      16.203822118462323
   142   1       2.051806159958844      1.9803105014001638      18.204679099892772
   143   3      1.7648886904513295      2.0301255708356547      16.165869815868234
   144   3   -0.046068391539650033      2.2703461822489066      18.303088946346339
   145   3      1.7184879081731081   -0.036179199598374047      18.199769966123732
   146   4     0.25930222749668858    -0.19921093739705148      20.077491211564546
   147   2      1.9863284169779976      1.8588467516484788      22.257209828820038
   148   3      1.9331535828906181      2.0371341616426868      20.323882605782806
   149   3    0.052762936217528582      2.1472187603346966      22.376469953894084
   150   3      1.9884836952096718  -0.0036156438185701804      22.412712750816748
   151   4  -0.0031772190967406144       3.766027079597523      12.107787324655456
   152   1      2.0111959111212596      6.0411579091520444      14.101169273497916
   153   3      2.1459668113086368      6.1521438383228411      12.093863833985923
   154   3   -0.056670104726490526      6.1204916304026256      14.277849658820791
   155   3      2.0379756741206436      4.0083135814511914      14.334740572150507
   156   4     0.22873653460034843      3.8458484716856725      16.032744300228234
   157   2      1.9766944495046672      6.0454921410538791      18.146707291724699
   158   3      1.9935283860649489      6.0736505237200431      16.269499364524478
   159   3    0.037774772808933169      6.0258450074353878      18.425504820503338
   160   3      2.0626564880230753      4.1050099346206004      18.451277772471173
   161   4     0.21400562856921637       3.839593041793337      20.107560626778433
   162   2      2.0180527021174712      5.9705589175337739      22.303788615431579
   163   3      2.0263810276672656      6.2761490580581354      20.337143729982056
   164   3    0.056735911646488953      6.2614666407598021      22.320950550815134
   165   3      2.0618909261773624       4.091470430238922      22.214669075512081
   166   4   -0.083640592150803827      8.1805018308564819      11.739406663540818
   167   2      2.0882604795536959      10.111632775923587      14.028077153797495
   168   3       1.954855356494315      10.120362506367133      12.165852706308018
   169   3    0.033647535870815509      10.213164963000933      14.407312587082014
   170   3      1.9522307944755966      8.1609238695485828       14.38453996931978
   171   4    0.070808678255285626      7.9391437642550731      15.848198695036347
   172   2      1.9082410496552824       10.06919990372795      18.191639215544289
   173   3      2.1035962306819029      10.158619316868144      16.298654975063226
   174   3    0.012140892706824476      10.314988351275773      18.266414611253079
   175   3      1.9297173718415312      8.1239996171943947      18.288875682554917
   176   4    -0.21442979842631518       7.684277717108035      20.174300300983184
   177   2      1.8981459959653804       10.13270626757649      22.175757790349063
   178   3      2.0143991499221654      10.177436778053586      20.303588311343816
   179   3    0.018882479600767364      10.174419602075428       22.50375731650859
   180   3      2.0738841733075222      8.2276383907074457      22.479530498185895
   181   4      4.1386123915075057    -0.25083429775339983      11.992135074451866
   182   2      6.2493544813327508      2.0315273579810822      14.089478015457553
   183   3       6.013379851318124      1.9345529994478774        12.1978056618085
   184   3      4.0413334235201663      1.9580416001396193      14.281134412719718
   185   3      6.1157500107322438     0.10529680251172678      14.410041501761755
   186   4      4.3564294324750383    -0.30641758129366431       16.06045674215186
   187   2      5.9344934292993612       2.004851868328041      18.108268127090476
   188   3      6.0278879255941336      2.2544699838672018      16.224472782753189
   189   3      4.0690613235178779       2.023443795759778      18.363574820195776
   190   3      6.2465444575269116    0.095903448951361922      18.156840595998069
   191   4       4.101604546838006    -0.33390696740747167      20.270796543786638
   192   2      6.0290229695056379      2.1231980312592116      22.183657565093743
   193   3      6.1336961836485697      1.8415124361065105      20.311511806179876
   194   3      4.0567154075861955      1.9915859448574047       22.38251826821374
   195   3      6.0702356186366693    0.059297844069553317      22.596367974826538
   196   4      4.2632651541982396      3.9289804746423687       11.78384903692414
   197   2      6.0809656016160352      6.1372426863050524      14.057337793257901
   198   3      6.0531641143405439      6.2254378651555715      12.161629246114098
   199   3      4.0701094625047478       6.184764977132728      14.344819639358144
   200   3      5.8531670467961794       4.056966668201671      14.063394298467914
   201   4      4.1927347427277732      4.2923341876532728      15.921150854727351
   202   1      6.0053648204673467      6.0930315190781856      18.170732968164767
   203   3      6.0543976327600042      5.8058809449770399      16.178518955330233
   204   3      3.9691163323589702        6.11615719925741      18.414306548325484
   205   3      5.9835099486492647      3.9955277312242816      18.548745501010711
   206   4      4.0377138761242843      4.0535803795942158      19.940895119966171
   207   1      6.0268836358578053      6.0234127492750797      22.334182628161681
   208   3      6.1190302649462494      6.2645399499400014      20.307194605966455
   209   3      3.9975311986696997      6.3107553674478067      22.301711297871282
   210   3      6.1181874802472853      4.0077209506787028      22.161895541558277
   211   4      3.8277685776938553      7.9196937585366669      11.861272386900589
   212   1      6.0130795359668516      10.113578948655196      14.111162340520819
   213   3      6.3458977750120402      10.000295041248538      12.095573735239272
   214   3      3.9905764350225903      9.9900238002610866      14.256327092380738
   215   3       6.122686515464264      8.0695587135137004      14.421682447071747
   216   4      4.0082511844420496      8.0646140675336113      15.838862463502183
   217   2      5.9101583249091041      10.133210435722546      18.139290946940282
   218   3      6.0502030356621965      10.238965378851857      16.279618329442773
   219   3      4.0329353778597303      10.039124314421299      18.406178903003322
   220   3      6.2184923338740212      8.1909142682788882      18.243961233261828
   221   4      4.1584038128533338      7.7003892732069623      20.218167825927821
   222   2      5.9703094210501044      10.095295157112966      22.267797899370127
   223   3      6.2784183145014048      10.070320710943298      20.369023020541217
   224   3      4.0783295564875131      10.238703190080567      22.351828506515197
   225   3      6.1402547695093972      8.2227036137413858      22.554824086828155
   226   4      7.9316799252793517    -0.24534597361969221        11.8591147144407
   227   1      10.078806066841272      2.0729776891434488      14.157985466456541
   228   3       10.35119966181586      2.0686085639236382      12.063426924464641
   229   3      8.0831778467546425      2.1557870852913865       14.16371165091426
   230   3      10.202225478959354   -0.041770904818459687      14.227610495702852
   231   4      7.8710830714063489      -0.341931208907094      16.090136334048523
   232   2      9.9375381643812659      2.0516403054654542      18.192088861060125
   233   3      10.235022781558904      2.0020574108938702      16.301007261914204
   234   3      8.0686997619491372      2.1989389436509743      18.305402681838061
   235   3      10.071715476158639    0.064355928683302463      18.424421019858936
   236   4      7.9855966389008781    -0.29430717612669904      20.060961913107697
   237   2      10.212860211088238      1.9567276192248633       22.21719966456828
   238   3      10.085800931677252       2.044001750158924      20.316505514612764
   239   3      8.0732880534531972       1.985227617161555      22.537967978727362
   240   3      10.115097961651061    0.043242642370084051       22.48444052869225
   241   4      7.8884899438618943      4.0561630389054857      11.820943524365852
   242   1      10.048537807313041      6.0954624115373779      14.108963450912894
   243   3      10.343895561921068      6.0621899650958779      12.094108023156977
   244   3      8.0288916690458123      6.0388102272165982      14.301731311030053
   245   3      10.378621853342214       4.075887057520359       14.16650597358977
   246   4       8.111470197794878      4.5453067474446609      16.233545123213894
   247   1      10.076797834236043      6.0837273971916233      18.234388620103292
   248   3      10.195548729041594      6.0067023738842256      16.221079491757934
   249   3      8.0730822479828284       5.943579821830185      18.305392028885958
   250   3      10.297395979198456      3.9831703319651024      18.327232143493667
   251   4      7.7724352881877881      4.3465366042150251      20.009305426105833
   252   2      9.9966372067381002      5.9816789385912301      22.304060393951683
   253   3      10.214851749693628      6.1038310169336913      20.375290962321831
   254   3      8.1415905889074356      6.2267569634883051      22.393778907079316
   255   3      10.092047899092456      4.0823039328945567      22.372627945215253
   256   4       7.979677308361957      8.1891197896721888      11.817119429601252
   257   2      10.072096014995703      10.108339893674897      14.068135829102884
   258   3      10.037248843818622      10.164359912280933      12.206851079589393
   259   3       8.145821537930571      10.122116155529827      14.443483191444187
   260   3      10.102586904247749      8.1723812888210716      14.403422335068516
   261   4      7.9802051331639552      8.1358516255237632      15.929833182527178
   262   2      10.003682639384811      10.146048593114303      18.240503981862997
   263   3      10.292619026836332      10.157972173089625      16.333356355904556
   264   3      8.1202386651963643      10.264657076538123      18.225738083197943
   265   3      10.172444353948663      8.1957618622781787      18.367447293124211
   266   4      7.8150013039294999      7.8043342597658976      19.953787601459144
   267   2      10.089424483925891      10.010892135936263      22.241815087041786
   268   3      10.090837105869953      10.245366176028572      20.299830636409769
   269   3      8.1587173151154513      10.207274638364916      22.503907373202971
   270   3      10.248825733056044      8.1142818516086361      22.332073524255371
   271   4    -0.12200230860509456      12.322978495671132     -0.4203507487122552
   272   2      1.9316268563375358      14.143277948431805      2.0101332793630582
   273   3      2.2175863175578705      14.215949353466501     0.10239845586218742
   274   3    0.047630236925907156      14.267478756159202      2.0600940695445247
   275   3      2.1820692388927934      12.257980404280239      2.1138410184830998
   276   4    -0.12464090455992628      11.916068151500285       4.077353156710215
   277   2      1.9405856535516737      14.167943023603238      6.0649479897838594
   278   3      2.1047669987099042      14.392631475046167      4.0700414901761439
   279   3    0.059971089777151064      14.179263356171466      6.2081765184262974
   280   3       2.273363520397865      12.254500855664348       5.995859450368088
   281   4   -0.038334243415278621      11.776104548046309      8.2176377215248024
   282   1      2.0111945101777584      14.187998074511636      10.060319722606007
   283   3       2.318619385695007       14.15755789888869      8.0346837114103611
   284   3   -0.015935199182602056      14.183407322684385      10.214782616466932
   285   3      2.2252492045663561      12.143262310904454      10.145092613329346
   286   4   -0.072639562297172874       16.03599807491614    -0.39043845343822686
   287   2      1.9071503019313054      18.231911762523612      2.0695890706281244
   288   3      2.2880144183732201      18.275813779499437      0.1050527877411309
   289   3    0.021278590372980334      18.250411051801407      2.0317562450548947
   290   3      2.1831286000534593      16.232218872957894      1.9712384202768147
   291   4    -0.21901618366910261      16.252090738443012      3.9825828301422206
   292   1      2.0177241728821889      18.235308067957273      6.0334308386274671
   293   3      2.0379984376700091      18.030537110160221      4.0167656291779936
   294   3  -0.0048771874881826721      18.274377532903451      6.3745530599254572
   295   3      2.0554770802001161      16.179467140551338      6.2564874167516686
   296   4   -0.006320176824626684       16.37628978885753       7.797323065591236
   297   2      1.9655381392863205      18.224776370614563      10.110511134347009
   298   3      2.3028578643014033      18.232537698800947      8.1765062391406911
   299   3    0.062286977219172104      18.352119322658659      10.108435402715967
   300   3      2.1119941630351629       16.26615261371111      10.225099624757648
   301   4    -0.14866757246712609      20.448258190090854    -0.27142129084008237
   302   2      1.9820861083073562      22.331520360849375       1.904191968076242
   303   3       2.096633184069205      22.201583055880498    0.027783546486268993
   304   3    0.066147354466072866      22.006086237507457       2.057591345410152
   305   3      2.1964293350420299      20.197702530984166      2.1797770620772416
   306   4    -0.15507487352367225      20.457650423368108      3.8245193538091935
   307   2       2.060008022680087      22.229551731062859      6.0762841568393968
   308   3      1.9279744528811555      22.282262583135079      4.0907439399987258
   309   3   -0.015554970443098911      22.117569683966568      6.1689767865827783
   310   3        2.10822662401926      20.259937875361057      6.1904660316875839
   311   4    0.034859398487301803      20.226242394761723      7.7790890545719886
   312   1      2.0269063637211242      22.268197486470196       10.06930190854526
   313   3      2.0365162612622814      22.255103105987946        8.05293845048263
   314   3   -0.030865085332647216      22.283866832457836      10.330915403493586
   315   3      2.3449750179044253      20.227571146893826      10.073885147627355
   316   4      3.7591138580655392      12.097249316542968    -0.12456272530965788
   317   2      5.9678558820796015      14.133716151544325      2.0919235298699181
   318   3      6.1573105951754661      14.201179875305511    0.039669678415564985
   319   3      4.1048869729489956      14.325565298292785      2.1293639156074415
   320   3      6.0738145828321679      12.246445962487632      2.0956725525718389
   321   4       3.968109074162248      11.868528273659882      4.1628990128679044
   322   2      6.0521431761499827      14.047249124688483      6.1636789163410954
   323   3       6.253401521533954      14.375893422326692      4.0222338189942803
   324   3      4.1398285400298063      14.441885876076462      5.9861533004627452
   325   3      5.9968082698271195      12.191904934209459      5.9602463694998429
   326   4      3.7162136592045187      12.214334260766137      8.3004245091663051
   327   1      6.0840784541120456      14.142537185345306      10.081030321195497
   328   3      6.0816204566582046      14.209117009838295      8.0525355980139341
   329   3      4.0815804717214679      14.216827063134307      10.328578674307749
   330   3      6.0165947586238344      12.095276228766519      10.274652645036289
   331   4      3.7271209542029067      16.222603730014722    -0.12008780810991385
   332   2      6.0700852285385292      18.192657288885833      1.9520324012562387
   333   3      5.9567551219368386      18.470123363416423    0.040378471995953069
   334   3      4.1242434926214431      18.202908144738505      2.2645363626612287
   335   3      6.2281478183825874      16.230662771401093      1.8968035363063045
   336   4      3.7587154185527978      16.279047744053027      4.0671837817676222
   337   2      5.9884420158768332      18.213732168524626      5.9898760375187603
   338   3       6.342150887943875      18.138521185590388      4.0831150657836339
   339   3      4.1267799336029505      18.123515892570847      6.0295286302748972
   340   3      6.3443626910078219      16.291226498083979      6.1558559019097512
   341   4      3.7911945940170031      16.090637189972814      7.9701758696007925
   342   2      6.1095113241158829       18.13210808141211      10.015135471712776
   343   3       6.090588753791411      18.386262466810702      8.1195172075117839
   344   3       4.163249018202432      18.193190259458863      10.329616807619837
   345   3      6.1645495419398992      16.258162405156916      10.146886814828726
   346   4      3.8984845004373692      20.089342298292099     -0.2529657998084715
   347   1      6.0346779569941065      22.221557289793843      1.9673268367955046
   348   3      5.9690190611436584        22.1531748045639   -0.046068465084819217
   349   3      3.9747346033022417      22.271200115631167       2.268368225058127
   350   3      6.0192642787830231      20.201340969447998      2.3018137294912204
   351   4      4.0387285620781199      20.314764321316623      3.7530471924568274
   352   1      6.0370424108369649       22.21934909318761       6.079228708398527
   353   3      6.1284019172993931      22.422339704317164      4.0502038662318327
   354   3      4.0112183851956837      22.468518951398504      6.0194986616527677
   355   3      6.1897102599175566      20.196418631737533      6.0259499427213532
   356   4      3.7075377337769559      20.249132938018111      8.0860235238461904
   357   2       6.013758750007014      22.218023823829046      10.067578155929111
   358   3       6.261850683650537      22.195058479043709      8.1221816135536553
   359   3      4.1111333416052664       22.47153462725889      10.133825302529893